 Entering Gaussian System, Link 0=g03
 Initial command:
 /usr/local/g03_E01/g03/l1.exe /work/r-lucchese/tmp/Gau-11195.inp -scrdir=/work/r-lucchese/tmp/
 Entering Link 1 = /usr/local/g03_E01/g03/l1.exe PID=     11196.
  
 Copyright (c) 1988,1990,1992,1993,1995,1998,2003,2004,2007, Gaussian, Inc.
                  All Rights Reserved.
  
 This is the Gaussian(R) 03 program.  It is based on the
 the Gaussian(R) 98 system (copyright 1998, Gaussian, Inc.),
 the Gaussian(R) 94 system (copyright 1995, Gaussian, Inc.),
 the Gaussian 92(TM) system (copyright 1992, Gaussian, Inc.),
 the Gaussian 90(TM) system (copyright 1990, Gaussian, Inc.),
 the Gaussian 88(TM) system (copyright 1988, Gaussian, Inc.),
 the Gaussian 86(TM) system (copyright 1986, Carnegie Mellon
 University), and the Gaussian 82(TM) system (copyright 1983,
 Carnegie Mellon University). Gaussian is a federally registered
 trademark of Gaussian, Inc.
  
 This software contains proprietary and confidential information,
 including trade secrets, belonging to Gaussian, Inc.
  
 This software is provided under written license and may be
 used, copied, transmitted, or stored only in accord with that
 written license.
  
 The following legend is applicable only to US Government
 contracts under FAR:
  
                    RESTRICTED RIGHTS LEGEND
  
 Use, reproduction and disclosure by the US Government is
 subject to restrictions as set forth in subparagraphs (a)
 and (c) of the Commercial Computer Software - Restricted
 Rights clause in FAR 52.227-19.
  
 Gaussian, Inc.
 340 Quinnipiac St., Bldg. 40, Wallingford CT 06492
  
  
 ---------------------------------------------------------------
 Warning -- This program may not be used in any manner that
 competes with the business of Gaussian, Inc. or will provide
 assistance to any competitor of Gaussian, Inc.  The licensee
 of this program is prohibited from giving any competitor of
 Gaussian, Inc. access to this program.  By using this program,
 the user acknowledges that Gaussian, Inc. is engaged in the
 business of creating and licensing software in the field of
 computational chemistry and represents and warrants to the
 licensee that it is not a competitor of Gaussian, Inc. and that
 it will not use this program in any manner prohibited above.
 ---------------------------------------------------------------
  

 Cite this work as:
 Gaussian 03, Revision E.01,
 M. J. Frisch, G. W. Trucks, H. B. Schlegel, G. E. Scuseria, 
 M. A. Robb, J. R. Cheeseman, J. A. Montgomery, Jr., T. Vreven, 
 K. N. Kudin, J. C. Burant, J. M. Millam, S. S. Iyengar, J. Tomasi, 
 V. Barone, B. Mennucci, M. Cossi, G. Scalmani, N. Rega, 
 G. A. Petersson, H. Nakatsuji, M. Hada, M. Ehara, K. Toyota, 
 R. Fukuda, J. Hasegawa, M. Ishida, T. Nakajima, Y. Honda, O. Kitao, 
 H. Nakai, M. Klene, X. Li, J. E. Knox, H. P. Hratchian, J. B. Cross, 
 V. Bakken, C. Adamo, J. Jaramillo, R. Gomperts, R. E. Stratmann, 
 O. Yazyev, A. J. Austin, R. Cammi, C. Pomelli, J. W. Ochterski, 
 P. Y. Ayala, K. Morokuma, G. A. Voth, P. Salvador, J. J. Dannenberg, 
 V. G. Zakrzewski, S. Dapprich, A. D. Daniels, M. C. Strain, 
 O. Farkas, D. K. Malick, A. D. Rabuck, K. Raghavachari, 
 J. B. Foresman, J. V. Ortiz, Q. Cui, A. G. Baboul, S. Clifford, 
 J. Cioslowski, B. B. Stefanov, G. Liu, A. Liashenko, P. Piskorz, 
 I. Komaromi, R. L. Martin, D. J. Fox, T. Keith, M. A. Al-Laham, 
 C. Y. Peng, A. Nanayakkara, M. Challacombe, P. M. W. Gill, 
 B. Johnson, W. Chen, M. W. Wong, C. Gonzalez, and J. A. Pople, 
 Gaussian, Inc., Wallingford CT, 2004.
 
 ******************************************
 Gaussian 03:  IA64L-G03RevE.01 11-Sep-2007
                31-Jul-2012 
 ******************************************
 -------------------------------------------------
 #HF/aug-cc-pvtz SCF=tight 6D 10F Gfinput PUNCH=MO
 -------------------------------------------------
 1/38=1/1;
 2/17=6,18=5,40=1/2;
 3/5=16,6=1,7=10,8=22,11=9,16=1,24=10,25=1,30=1/1,2,3;
 4//1;
 5/5=2,32=2,38=5/2;
 6/7=2,8=2,9=2,10=2,28=1/1;
 99/5=1,9=1,10=32/99;
 -----
 N2 HF
 -----
 Symbolic Z-matrix:
 Charge =  0 Multiplicity = 1
 N1
 N2                   N1   RNN
       Variables:
  RNN                   1.09768                  
 
                          Input orientation:                          
 ---------------------------------------------------------------------
 Center     Atomic     Atomic              Coordinates (Angstroms)
 Number     Number      Type              X           Y           Z
 ---------------------------------------------------------------------
    1          7             0        0.000000    0.000000    0.000000
    2          7             0        0.000000    0.000000    1.097680
 ---------------------------------------------------------------------
 Stoichiometry    N2
 Framework group  D*H[C*(N.N)]
 Deg. of freedom     1
 Full point group                 D*H
 Largest Abelian subgroup         D2H     NOp   8
 Largest concise Abelian subgroup C2      NOp   2
                         Standard orientation:                         
 ---------------------------------------------------------------------
 Center     Atomic     Atomic              Coordinates (Angstroms)
 Number     Number      Type              X           Y           Z
 ---------------------------------------------------------------------
    1          7             0        0.000000    0.000000    0.548840
    2          7             0        0.000000    0.000000   -0.548840
 ---------------------------------------------------------------------
 Rotational constants (GHZ):      0.0000000     59.9062736     59.9062736
 Standard basis: Aug-CC-pVTZ (6D, 10F)
 AO basis set in the form of general basis input:
      1 0
 S   7 1.00       0.000000000000
      0.1142000000D+05  0.5345638595D-03
      0.1712000000D+04  0.4134356596D-02
      0.3893000000D+03  0.2123353578D-01
      0.1100000000D+03  0.8250062241D-01
      0.3557000000D+02  0.2381388709D+00
      0.1254000000D+02  0.4425515469D+00
      0.4644000000D+01  0.3537574220D+00
 S   7 1.00       0.000000000000
      0.1142000000D+05  0.9021026067D-05
      0.1712000000D+04  0.5980366520D-04
      0.3893000000D+03  0.2582351507D-03
      0.3557000000D+02 -0.6887949590D-02
      0.1254000000D+02 -0.5836349557D-01
      0.4644000000D+01 -0.1661629770D+00
      0.5118000000D+00  0.1071192188D+01
 S   1 1.00       0.000000000000
      0.1293000000D+01  0.1000000000D+01
 S   1 1.00       0.000000000000
      0.1787000000D+00  0.1000000000D+01
 P   3 1.00       0.000000000000
      0.2663000000D+02  0.3980721230D-01
      0.5948000000D+01  0.2490026605D+00
      0.1742000000D+01  0.8104797267D+00
 P   1 1.00       0.000000000000
      0.5550000000D+00  0.1000000000D+01
 P   1 1.00       0.000000000000
      0.1725000000D+00  0.1000000000D+01
 D   1 1.00       0.000000000000
      0.1654000000D+01  0.1000000000D+01
 D   1 1.00       0.000000000000
      0.4690000000D+00  0.1000000000D+01
 F   1 1.00       0.000000000000
      0.1093000000D+01  0.1000000000D+01
 S   1 1.00       0.000000000000
      0.5760000000D-01  0.1000000000D+01
 P   1 1.00       0.000000000000
      0.4910000000D-01  0.1000000000D+01
 D   1 1.00       0.000000000000
      0.1510000000D+00  0.1000000000D+01
 F   1 1.00       0.000000000000
      0.3640000000D+00  0.1000000000D+01
 ****
      2 0
 S   7 1.00       0.000000000000
      0.1142000000D+05  0.5345638595D-03
      0.1712000000D+04  0.4134356596D-02
      0.3893000000D+03  0.2123353578D-01
      0.1100000000D+03  0.8250062241D-01
      0.3557000000D+02  0.2381388709D+00
      0.1254000000D+02  0.4425515469D+00
      0.4644000000D+01  0.3537574220D+00
 S   7 1.00       0.000000000000
      0.1142000000D+05  0.9021026067D-05
      0.1712000000D+04  0.5980366520D-04
      0.3893000000D+03  0.2582351507D-03
      0.3557000000D+02 -0.6887949590D-02
      0.1254000000D+02 -0.5836349557D-01
      0.4644000000D+01 -0.1661629770D+00
      0.5118000000D+00  0.1071192188D+01
 S   1 1.00       0.000000000000
      0.1293000000D+01  0.1000000000D+01
 S   1 1.00       0.000000000000
      0.1787000000D+00  0.1000000000D+01
 P   3 1.00       0.000000000000
      0.2663000000D+02  0.3980721230D-01
      0.5948000000D+01  0.2490026605D+00
      0.1742000000D+01  0.8104797267D+00
 P   1 1.00       0.000000000000
      0.5550000000D+00  0.1000000000D+01
 P   1 1.00       0.000000000000
      0.1725000000D+00  0.1000000000D+01
 D   1 1.00       0.000000000000
      0.1654000000D+01  0.1000000000D+01
 D   1 1.00       0.000000000000
      0.4690000000D+00  0.1000000000D+01
 F   1 1.00       0.000000000000
      0.1093000000D+01  0.1000000000D+01
 S   1 1.00       0.000000000000
      0.5760000000D-01  0.1000000000D+01
 P   1 1.00       0.000000000000
      0.4910000000D-01  0.1000000000D+01
 D   1 1.00       0.000000000000
      0.1510000000D+00  0.1000000000D+01
 F   1 1.00       0.000000000000
      0.3640000000D+00  0.1000000000D+01
 ****

 There are    24 symmetry adapted basis functions of AG  symmetry.
 There are     5 symmetry adapted basis functions of B1G symmetry.
 There are    13 symmetry adapted basis functions of B2G symmetry.
 There are    13 symmetry adapted basis functions of B3G symmetry.
 There are     5 symmetry adapted basis functions of AU  symmetry.
 There are    24 symmetry adapted basis functions of B1U symmetry.
 There are    13 symmetry adapted basis functions of B2U symmetry.
 There are    13 symmetry adapted basis functions of B3U symmetry.
 Integral buffers will be    131072 words long.
 Raffenetti 1 integral format.
 Two-electron integral symmetry is turned on.
   110 basis functions,   146 primitive gaussians,   110 cartesian basis functions
     7 alpha electrons        7 beta electrons
       nuclear repulsion energy        23.6222607743 Hartrees.
 NAtoms=    2 NActive=    2 NUniq=    1 SFac= 3.00D+00 NAtFMM=   80 NAOKFM=F Big=F
 One-electron integrals computed using PRISM.
 NBasis=   110 RedAO= T  NBF=    24     5    13    13     5    24    13    13
 NBsUse=   110 1.00D-06 NBFU=    24     5    13    13     5    24    13    13
 Harris functional with IExCor=  205 diagonalized for initial guess.
 ExpMin= 4.91D-02 ExpMax= 1.14D+04 ExpMxC= 3.89D+02 IAcc=2 IRadAn=         4 AccDes= 0.00D+00
 HarFok:  IExCor= 205 AccDes= 0.00D+00 IRadAn=         4 IDoV=1
 ScaDFX=  1.000000  1.000000  1.000000  1.000000
 Initial guess orbital symmetries:
       Occupied  (SGG) (SGU) (SGG) (SGU) (PIU) (PIU) (SGG)
       Virtual   (PIG) (PIG) (SGG) (SGU) (PIU) (PIU) (SGG) (PIG)
                 (PIG) (SGU) (DLTG) (DLTG) (SGU) (SGG) (SGG) (PIU)
                 (PIU) (PIG) (PIG) (PIU) (PIU) (DLTU) (DLTU) (SGU)
                 (SGU) (SGG) (PIG) (PIG) (SGU) (SGG) (DLTG) (DLTG)
                 (PHIU) (PHIU) (PIU) (PIU) (SGG) (PIG) (PIG) (PIU)
                 (PIU) (SGU) (DLTU) (DLTU) (DLTG) (DLTG) (PHIG)
                 (PHIG) (PIG) (PIG) (SGG) (SGU) (PIU) (PIU) (SGU)
                 (DLTU) (DLTU) (SGG) (SGU) (PIG) (PIG) (SGG) (SGU)
                 (PIU) (PIU) (SGG) (DLTG) (DLTG) (PIG) (PIG) (PIU)
                 (PIU) (PHIU) (PHIU) (DLTG) (DLTG) (PHIG) (PHIG)
                 (SGG) (DLTU) (DLTU) (SGU) (PIU) (PIU) (PIG) (PIG)
                 (DLTU) (DLTU) (SGU) (SGG) (PIG) (PIG) (SGU) (PIU)
                 (PIU) (SGG) (PIG) (PIG) (SGG) (SGU) (SGU) (SGG)
                 (SGU)
 The electronic state of the initial guess is 1-SGG.
 Requested convergence on RMS density matrix=1.00D-08 within 128 cycles.
 Requested convergence on MAX density matrix=1.00D-06.
 Requested convergence on             energy=1.00D-06.
 No special actions if energy rises.
 SCF Done:  E(RHF) =  -108.985634641     A.U. after    9 cycles
             Convg  =    0.2843D-08             -V/T =  2.0021
             S**2   =   0.0000

 **********************************************************************

            Population analysis using the SCF density.

 **********************************************************************

 Orbital symmetries:
       Occupied  (SGG) (SGU) (SGG) (SGU) (SGG) (PIU) (PIU)
       Virtual   (SGU) (SGG) (PIU) (PIU) (PIG) (PIG) (SGG) (PIG)
                 (PIG) (SGU) (SGU) (DLTG) (DLTG) (SGG) (SGG) (PIU)
                 (PIU) (PIG) (PIG) (DLTU) (DLTU) (PIU) (PIU) (SGU)
                 (SGG) (PIG) (PIG) (SGU) (SGU) (SGG) (DLTG) (DLTG)
                 (PHIU) (PHIU) (SGG) (PIU) (PIU) (PIG) (PIG) (SGU)
                 (PIU) (PIU) (DLTU) (DLTU) (DLTG) (DLTG) (PHIG)
                 (PHIG) (PIG) (PIG) (SGG) (SGU) (SGU) (PIU) (PIU)
                 (DLTU) (DLTU) (SGG) (SGU) (PIG) (PIG) (SGG) (SGU)
                 (PIU) (PIU) (SGG) (DLTG) (DLTG) (PIU) (PIU) (PIG)
                 (PIG) (PHIU) (PHIU) (PHIG) (PHIG) (DLTG) (DLTG)
                 (SGG) (DLTU) (DLTU) (SGU) (PIU) (PIU) (PIG) (PIG)
                 (DLTU) (DLTU) (SGU) (SGG) (PIG) (PIG) (SGU) (PIU)
                 (PIU) (SGG) (PIG) (PIG) (SGG) (SGU) (SGU) (SGG)
                 (SGU)
 The electronic state is 1-SGG.
 Alpha  occ. eigenvalues --  -15.68411 -15.68057  -1.47197  -0.77935  -0.63430
 Alpha  occ. eigenvalues --   -0.61421  -0.61421
 Alpha virt. eigenvalues --    0.08083   0.09202   0.11664   0.11664   0.11726
 Alpha virt. eigenvalues --    0.11726   0.15639   0.20677   0.20677   0.24181
 Alpha virt. eigenvalues --    0.40926   0.41374   0.41374   0.43228   0.48337
 Alpha virt. eigenvalues --    0.51573   0.51573   0.57533   0.57533   0.58229
 Alpha virt. eigenvalues --    0.58229   0.59473   0.59473   0.60839   0.82498
 Alpha virt. eigenvalues --    0.82656   0.82656   0.83530   1.13865   1.23724
 Alpha virt. eigenvalues --    1.34207   1.34207   1.37220   1.37220   1.44248
 Alpha virt. eigenvalues --    1.44484   1.44484   1.44779   1.44779   1.45217
 Alpha virt. eigenvalues --    1.50034   1.50034   1.57118   1.57118   1.70361
 Alpha virt. eigenvalues --    1.70361   1.72052   1.72052   1.91881   1.91881
 Alpha virt. eigenvalues --    1.93113   2.02434   2.10778   2.16093   2.16093
 Alpha virt. eigenvalues --    2.31733   2.31733   2.54651   2.70970   2.86834
 Alpha virt. eigenvalues --    2.86834   3.68241   3.96767   4.12353   4.12353
 Alpha virt. eigenvalues --    4.35499   4.39708   4.39708   4.54009   4.54009
 Alpha virt. eigenvalues --    4.55312   4.55312   4.66126   4.66126   5.04347
 Alpha virt. eigenvalues --    5.04347   5.07749   5.07749   5.12640   5.15702
 Alpha virt. eigenvalues --    5.15702   5.36487   5.59535   5.59535   5.67141
 Alpha virt. eigenvalues --    5.67141   5.74677   5.74677   5.90629   6.69040
 Alpha virt. eigenvalues --    6.87945   6.87945   7.38269   9.64193   9.64193
 Alpha virt. eigenvalues --   10.51133  11.49414  11.49414  12.33691  12.82759
 Alpha virt. eigenvalues --   13.76368  15.49584  36.82350
          Condensed to atoms (all electrons):
              1          2
     1  N    6.873697   0.126303
     2  N    0.126303   6.873697
 Mulliken atomic charges:
              1
     1  N    0.000000
     2  N    0.000000
 Sum of Mulliken charges=   0.00000
 Atomic charges with hydrogens summed into heavy atoms:
              1
     1  N    0.000000
     2  N    0.000000
 Sum of Mulliken charges=   0.00000
 Electronic spatial extent (au):  <R**2>=    39.1551
 Charge=     0.0000 electrons
 Dipole moment (field-independent basis, Debye):
    X=     0.0000    Y=     0.0000    Z=     0.0000  Tot=     0.0000
 Quadrupole moment (field-independent basis, Debye-Ang):
   XX=   -10.3849   YY=   -10.3849   ZZ=   -11.6392
   XY=     0.0000   XZ=     0.0000   YZ=     0.0000
 Traceless Quadrupole moment (field-independent basis, Debye-Ang):
   XX=     0.4181   YY=     0.4181   ZZ=    -0.8362
   XY=     0.0000   XZ=     0.0000   YZ=     0.0000
 Octapole moment (field-independent basis, Debye-Ang**2):
  XXX=     0.0000  YYY=     0.0000  ZZZ=     0.0000  XYY=     0.0000
  XXY=     0.0000  XXZ=     0.0000  XZZ=     0.0000  YZZ=     0.0000
  YYZ=     0.0000  XYZ=     0.0000
 Hexadecapole moment (field-independent basis, Debye-Ang**3):
 XXXX=    -9.1571 YYYY=    -9.1571 ZZZZ=   -31.3867 XXXY=     0.0000
 XXXZ=     0.0000 YYYX=     0.0000 YYYZ=     0.0000 ZZZX=     0.0000
 ZZZY=     0.0000 XXYY=    -3.0524 XXZZ=    -6.3030 YYZZ=    -6.3030
 XXYZ=     0.0000 YYXZ=     0.0000 ZZXY=     0.0000
 N-N= 2.362226077427D+01 E-N=-3.030130928752D+02  KE= 1.087547682800D+02
 Symmetry AG   KE= 5.337337260071D+01
 Symmetry B1G  KE= 5.170311335747D-34
 Symmetry B2G  KE= 4.581944511661D-29
 Symmetry B3G  KE= 2.611042913105D-29
 Symmetry AU   KE= 2.657679710896D-32
 Symmetry B1U  KE= 4.888272198866D+01
 Symmetry B2U  KE= 3.249336845324D+00
 Symmetry B3U  KE= 3.249336845324D+00
 1\1\GINC-MEDUSA\SP\RHF\Aug-CC-pVTZ\N2\R-LUCCHESE\31-Jul-2012\0\\#HF/au
 g-cc-pvtz SCF=tight 6D 10F Gfinput PUNCH=MO\\N2 HF\\0,1\N\N,1,1.09768\
 \Version=IA64L-G03RevE.01\State=1-SGG\HF=-108.9856346\RMSD=2.843e-09\T
 hermal=0.\Dipole=0.,0.,0.\PG=D*H [C*(N1.N1)]\\@


 It takes a long time to grow an old friend.
                            -- John Leonard
 Job cpu time:  0 days  0 hours  0 minutes  7.7 seconds.
 File lengths (MBytes):  RWF=     17 Int=      0 D2E=      0 Chk=     10 Scr=      1
 Normal termination of Gaussian 03 at Tue Jul 31 16:27:54 2012.
(5D15.8)
    1 Alpha MO OE=-0.15684112D+02
 0.69110998D+00-0.10179845D-01 0.33879716D-01-0.92876732D-02 0.00000000D+00
 0.00000000D+00-0.25585328D-02 0.00000000D+00 0.00000000D+00 0.33976414D-02
 0.00000000D+00 0.00000000D+00 0.26726377D-02 0.14362811D-02 0.14362811D-02
 0.22988285D-02 0.00000000D+00 0.00000000D+00 0.00000000D+00 0.53329910D-02
 0.53329910D-02 0.41013123D-02 0.00000000D+00 0.00000000D+00 0.00000000D+00
 0.00000000D+00 0.00000000D+00-0.15507425D-02 0.00000000D+00 0.00000000D+00
-0.87375837D-03 0.00000000D+00 0.00000000D+00-0.87375837D-03 0.00000000D+00
-0.12407680D-02 0.00000000D+00 0.00000000D+00 0.31064499D-03 0.17726843D-02
 0.17726843D-02 0.43773232D-03 0.00000000D+00 0.00000000D+00 0.00000000D+00
 0.00000000D+00 0.00000000D+00-0.49752766D-03 0.00000000D+00 0.00000000D+00
-0.72081864D-03 0.00000000D+00 0.00000000D+00-0.72081864D-03 0.00000000D+00
 0.69110998D+00-0.10179845D-01 0.33879716D-01-0.92876732D-02 0.00000000D+00
 0.00000000D+00 0.25585328D-02 0.00000000D+00 0.00000000D+00-0.33976414D-02
 0.00000000D+00 0.00000000D+00-0.26726377D-02 0.14362811D-02 0.14362811D-02
 0.22988285D-02 0.00000000D+00 0.00000000D+00 0.00000000D+00 0.53329910D-02
 0.53329910D-02 0.41013123D-02 0.00000000D+00 0.00000000D+00 0.00000000D+00
 0.00000000D+00 0.00000000D+00 0.15507425D-02 0.00000000D+00 0.00000000D+00
 0.87375837D-03 0.00000000D+00 0.00000000D+00 0.87375837D-03 0.00000000D+00
-0.12407680D-02 0.00000000D+00 0.00000000D+00-0.31064499D-03 0.17726843D-02
 0.17726843D-02 0.43773232D-03 0.00000000D+00 0.00000000D+00 0.00000000D+00
 0.00000000D+00 0.00000000D+00 0.49752766D-03 0.00000000D+00 0.00000000D+00
 0.72081864D-03 0.00000000D+00 0.00000000D+00 0.72081864D-03 0.00000000D+00
    2 Alpha MO OE=-0.15680571D+02
 0.69163553D+00-0.10099852D-01 0.34705196D-01-0.72012224D-01 0.00000000D+00
 0.00000000D+00-0.22316844D-02 0.00000000D+00 0.00000000D+00 0.19215323D-02
 0.00000000D+00 0.00000000D+00 0.38537275D-01 0.16416952D-02 0.16416952D-02
 0.25240965D-02 0.00000000D+00 0.00000000D+00 0.00000000D+00 0.70928564D-02
 0.70928564D-02 0.71005434D-02 0.00000000D+00 0.00000000D+00 0.00000000D+00
 0.00000000D+00 0.00000000D+00-0.30226933D-02 0.00000000D+00 0.00000000D+00
-0.85954853D-03 0.00000000D+00 0.00000000D+00-0.85954853D-03 0.00000000D+00
-0.47107863D-02 0.00000000D+00 0.00000000D+00 0.10665588D-02-0.89912835D-03
-0.89912835D-03-0.81541609D-02 0.00000000D+00 0.00000000D+00 0.00000000D+00
 0.00000000D+00 0.00000000D+00-0.66547768D-02 0.00000000D+00 0.00000000D+00
-0.34473870D-02 0.00000000D+00 0.00000000D+00-0.34473870D-02 0.00000000D+00
-0.69163553D+00 0.10099852D-01-0.34705196D-01 0.72012224D-01 0.00000000D+00
 0.00000000D+00-0.22316844D-02 0.00000000D+00 0.00000000D+00 0.19215323D-02
 0.00000000D+00 0.00000000D+00 0.38537275D-01-0.16416952D-02-0.16416952D-02
-0.25240965D-02 0.00000000D+00 0.00000000D+00 0.00000000D+00-0.70928564D-02
-0.70928564D-02-0.71005434D-02 0.00000000D+00 0.00000000D+00 0.00000000D+00
 0.00000000D+00 0.00000000D+00-0.30226933D-02 0.00000000D+00 0.00000000D+00
-0.85954853D-03 0.00000000D+00 0.00000000D+00-0.85954853D-03 0.00000000D+00
 0.47107863D-02 0.00000000D+00 0.00000000D+00 0.10665588D-02 0.89912835D-03
 0.89912835D-03 0.81541609D-02 0.00000000D+00 0.00000000D+00 0.00000000D+00
 0.00000000D+00 0.00000000D+00-0.66547768D-02 0.00000000D+00 0.00000000D+00
-0.34473870D-02 0.00000000D+00 0.00000000D+00-0.34473870D-02 0.00000000D+00
    3 Alpha MO OE=-0.14719728D+01
-0.15954007D+00 0.34575249D+00 0.90352983D-01 0.99672555D-01 0.00000000D+00
 0.00000000D+00-0.12996226D+00 0.00000000D+00 0.00000000D+00-0.10991991D+00
 0.00000000D+00 0.00000000D+00-0.33633048D-01-0.70924235D-02-0.70924235D-02
 0.23714129D-01 0.00000000D+00 0.00000000D+00 0.00000000D+00-0.92452236D-02
-0.92452236D-02 0.87923459D-02 0.00000000D+00 0.00000000D+00 0.00000000D+00
 0.00000000D+00 0.00000000D+00-0.15143295D-01 0.00000000D+00 0.00000000D+00
 0.18038975D-03 0.00000000D+00 0.00000000D+00 0.18038975D-03 0.00000000D+00
-0.22176737D-02 0.00000000D+00 0.00000000D+00 0.71861966D-02 0.18810879D-02
 0.18810879D-02 0.94167197D-03 0.00000000D+00 0.00000000D+00 0.00000000D+00
 0.00000000D+00 0.00000000D+00 0.13058153D-01 0.00000000D+00 0.00000000D+00
 0.15778282D-02 0.00000000D+00 0.00000000D+00 0.15778282D-02 0.00000000D+00
-0.15954007D+00 0.34575249D+00 0.90352983D-01 0.99672555D-01 0.00000000D+00
 0.00000000D+00 0.12996226D+00 0.00000000D+00 0.00000000D+00 0.10991991D+00
 0.00000000D+00 0.00000000D+00 0.33633048D-01-0.70924235D-02-0.70924235D-02
 0.23714129D-01 0.00000000D+00 0.00000000D+00 0.00000000D+00-0.92452236D-02
-0.92452236D-02 0.87923459D-02 0.00000000D+00 0.00000000D+00 0.00000000D+00
 0.00000000D+00 0.00000000D+00 0.15143295D-01 0.00000000D+00 0.00000000D+00
-0.18038975D-03 0.00000000D+00 0.00000000D+00-0.18038975D-03 0.00000000D+00
-0.22176737D-02 0.00000000D+00 0.00000000D+00-0.71861966D-02 0.18810879D-02
 0.18810879D-02 0.94167197D-03 0.00000000D+00 0.00000000D+00 0.00000000D+00
 0.00000000D+00 0.00000000D+00-0.13058153D-01 0.00000000D+00 0.00000000D+00
-0.15778282D-02 0.00000000D+00 0.00000000D+00-0.15778282D-02 0.00000000D+00
    4 Alpha MO OE=-0.77934812D+00
-0.14404721D+00 0.36001844D+00 0.94768673D-01 0.48276181D+00 0.00000000D+00
 0.00000000D+00 0.12173382D+00 0.00000000D+00 0.00000000D+00 0.14049740D+00
 0.00000000D+00 0.00000000D+00-0.46866969D-01 0.21331340D-02 0.21331340D-02
-0.25365061D-02 0.00000000D+00 0.00000000D+00 0.00000000D+00-0.39957420D-02
-0.39957420D-02-0.11627472D-01 0.00000000D+00 0.00000000D+00 0.00000000D+00
 0.00000000D+00 0.00000000D+00 0.67208884D-02 0.00000000D+00 0.00000000D+00
 0.37834890D-02 0.00000000D+00 0.00000000D+00 0.37834890D-02 0.00000000D+00
 0.11645151D+00 0.00000000D+00 0.00000000D+00-0.15189285D-01-0.57153981D-02
-0.57153981D-02 0.14927853D-01 0.00000000D+00 0.00000000D+00 0.00000000D+00
 0.00000000D+00 0.00000000D+00 0.24356772D-01 0.00000000D+00 0.00000000D+00
 0.11859541D-01 0.00000000D+00 0.00000000D+00 0.11859541D-01 0.00000000D+00
 0.14404721D+00-0.36001844D+00-0.94768673D-01-0.48276181D+00 0.00000000D+00
 0.00000000D+00 0.12173382D+00 0.00000000D+00 0.00000000D+00 0.14049740D+00
 0.00000000D+00 0.00000000D+00-0.46866969D-01-0.21331340D-02-0.21331340D-02
 0.25365061D-02 0.00000000D+00 0.00000000D+00 0.00000000D+00 0.39957420D-02
 0.39957420D-02 0.11627472D-01 0.00000000D+00 0.00000000D+00 0.00000000D+00
 0.00000000D+00 0.00000000D+00 0.67208884D-02 0.00000000D+00 0.00000000D+00
 0.37834890D-02 0.00000000D+00 0.00000000D+00 0.37834890D-02 0.00000000D+00
-0.11645151D+00 0.00000000D+00 0.00000000D+00-0.15189285D-01 0.57153981D-02
 0.57153981D-02-0.14927853D-01 0.00000000D+00 0.00000000D+00 0.00000000D+00
 0.00000000D+00 0.00000000D+00 0.24356772D-01 0.00000000D+00 0.00000000D+00
 0.11859541D-01 0.00000000D+00 0.00000000D+00 0.11859541D-01 0.00000000D+00
    5 Alpha MO OE=-0.63430080D+00
-0.49357894D-01 0.14075283D+00 0.35521940D-01 0.24625426D+00 0.00000000D+00
 0.00000000D+00 0.26109172D+00 0.00000000D+00 0.00000000D+00 0.28278951D+00
 0.00000000D+00 0.00000000D+00 0.13519834D+00 0.75113383D-02 0.75113383D-02
-0.19680054D-01 0.00000000D+00 0.00000000D+00 0.00000000D+00 0.64710373D-02
 0.64710373D-02-0.15081679D-01 0.00000000D+00 0.00000000D+00 0.00000000D+00
 0.00000000D+00 0.00000000D+00 0.15291153D-01 0.00000000D+00 0.00000000D+00
 0.88935925D-03 0.00000000D+00 0.00000000D+00 0.88935925D-03 0.00000000D+00
 0.35432297D-01 0.00000000D+00 0.00000000D+00 0.16012576D-02-0.37983622D-02
-0.37983622D-02-0.96422087D-02 0.00000000D+00 0.00000000D+00 0.00000000D+00
 0.00000000D+00 0.00000000D+00 0.60740411D-02 0.00000000D+00 0.00000000D+00
 0.46402345D-02 0.00000000D+00 0.00000000D+00 0.46402345D-02 0.00000000D+00
-0.49357894D-01 0.14075283D+00 0.35521940D-01 0.24625426D+00 0.00000000D+00
 0.00000000D+00-0.26109172D+00 0.00000000D+00 0.00000000D+00-0.28278951D+00
 0.00000000D+00 0.00000000D+00-0.13519834D+00 0.75113383D-02 0.75113383D-02
-0.19680054D-01 0.00000000D+00 0.00000000D+00 0.00000000D+00 0.64710373D-02
 0.64710373D-02-0.15081679D-01 0.00000000D+00 0.00000000D+00 0.00000000D+00
 0.00000000D+00 0.00000000D+00-0.15291153D-01 0.00000000D+00 0.00000000D+00
-0.88935925D-03 0.00000000D+00 0.00000000D+00-0.88935925D-03 0.00000000D+00
 0.35432297D-01 0.00000000D+00 0.00000000D+00-0.16012576D-02-0.37983622D-02
-0.37983622D-02-0.96422087D-02 0.00000000D+00 0.00000000D+00 0.00000000D+00
 0.00000000D+00 0.00000000D+00-0.60740411D-02 0.00000000D+00 0.00000000D+00
-0.46402345D-02 0.00000000D+00 0.00000000D+00-0.46402345D-02 0.00000000D+00
    6 Alpha MO OE=-0.61421431D+00
 0.00000000D+00 0.00000000D+00 0.00000000D+00 0.00000000D+00 0.00000000D+00
 0.23811165D+00 0.00000000D+00 0.00000000D+00 0.27908197D+00 0.00000000D+00
 0.00000000D+00 0.13946202D+00 0.00000000D+00 0.00000000D+00 0.00000000D+00
 0.00000000D+00 0.00000000D+00 0.00000000D+00-0.20141020D-01 0.00000000D+00
 0.00000000D+00 0.00000000D+00 0.00000000D+00 0.00000000D+00-0.36434545D-01
 0.00000000D+00 0.10168930D-01 0.00000000D+00 0.00000000D+00 0.45476836D-02
 0.00000000D+00 0.00000000D+00 0.15730325D-01 0.00000000D+00 0.00000000D+00
 0.00000000D+00 0.00000000D+00 0.10782916D-01 0.00000000D+00 0.00000000D+00
 0.00000000D+00 0.00000000D+00 0.00000000D+00 0.00000000D+00-0.68589173D-02
 0.00000000D+00 0.21496736D-01 0.00000000D+00 0.00000000D+00 0.96136328D-02
 0.00000000D+00 0.00000000D+00 0.10810167D-01 0.00000000D+00 0.00000000D+00
 0.00000000D+00 0.00000000D+00 0.00000000D+00 0.00000000D+00 0.00000000D+00
 0.23811165D+00 0.00000000D+00 0.00000000D+00 0.27908197D+00 0.00000000D+00
 0.00000000D+00 0.13946202D+00 0.00000000D+00 0.00000000D+00 0.00000000D+00
 0.00000000D+00 0.00000000D+00 0.00000000D+00 0.20141020D-01 0.00000000D+00
 0.00000000D+00 0.00000000D+00 0.00000000D+00 0.00000000D+00 0.36434545D-01
 0.00000000D+00 0.10168930D-01 0.00000000D+00 0.00000000D+00 0.45476836D-02
 0.00000000D+00 0.00000000D+00 0.15730325D-01 0.00000000D+00 0.00000000D+00
 0.00000000D+00 0.00000000D+00 0.10782916D-01 0.00000000D+00 0.00000000D+00
 0.00000000D+00 0.00000000D+00 0.00000000D+00 0.00000000D+00 0.68589173D-02
 0.00000000D+00 0.21496736D-01 0.00000000D+00 0.00000000D+00 0.96136328D-02
 0.00000000D+00 0.00000000D+00 0.10810167D-01 0.00000000D+00 0.00000000D+00
    7 Alpha MO OE=-0.61421431D+00
 0.00000000D+00 0.00000000D+00 0.00000000D+00 0.00000000D+00 0.23811165D+00
 0.00000000D+00 0.00000000D+00 0.27908197D+00 0.00000000D+00 0.00000000D+00
 0.13946202D+00 0.00000000D+00 0.00000000D+00 0.00000000D+00 0.00000000D+00
 0.00000000D+00 0.00000000D+00-0.20141020D-01 0.00000000D+00 0.00000000D+00
 0.00000000D+00 0.00000000D+00 0.00000000D+00-0.36434545D-01 0.00000000D+00
 0.10168930D-01 0.00000000D+00 0.00000000D+00 0.45476836D-02 0.00000000D+00
 0.00000000D+00 0.15730325D-01 0.00000000D+00 0.00000000D+00 0.00000000D+00
 0.00000000D+00 0.10782916D-01 0.00000000D+00 0.00000000D+00 0.00000000D+00
 0.00000000D+00 0.00000000D+00 0.00000000D+00-0.68589173D-02 0.00000000D+00
 0.21496736D-01 0.00000000D+00 0.00000000D+00 0.96136328D-02 0.00000000D+00
 0.00000000D+00 0.10810167D-01 0.00000000D+00 0.00000000D+00 0.00000000D+00
 0.00000000D+00 0.00000000D+00 0.00000000D+00 0.00000000D+00 0.23811165D+00
 0.00000000D+00 0.00000000D+00 0.27908197D+00 0.00000000D+00 0.00000000D+00
 0.13946202D+00 0.00000000D+00 0.00000000D+00 0.00000000D+00 0.00000000D+00
 0.00000000D+00 0.00000000D+00 0.20141020D-01 0.00000000D+00 0.00000000D+00
 0.00000000D+00 0.00000000D+00 0.00000000D+00 0.36434545D-01 0.00000000D+00
 0.10168930D-01 0.00000000D+00 0.00000000D+00 0.45476836D-02 0.00000000D+00
 0.00000000D+00 0.15730325D-01 0.00000000D+00 0.00000000D+00 0.00000000D+00
 0.00000000D+00 0.10782916D-01 0.00000000D+00 0.00000000D+00 0.00000000D+00
 0.00000000D+00 0.00000000D+00 0.00000000D+00 0.68589173D-02 0.00000000D+00
 0.21496736D-01 0.00000000D+00 0.00000000D+00 0.96136328D-02 0.00000000D+00
 0.00000000D+00 0.10810167D-01 0.00000000D+00 0.00000000D+00 0.00000000D+00
    8 Alpha MO OE= 0.80834250D-01
-0.17810189D-01 0.50771595D-01-0.77435890D-01 0.62842497D+00 0.00000000D+00
 0.00000000D+00 0.14236019D-01 0.00000000D+00 0.00000000D+00-0.31447023D+00
 0.00000000D+00 0.00000000D+00-0.12730261D+00-0.13752196D-01-0.13752196D-01
-0.77226564D-02 0.00000000D+00 0.00000000D+00 0.00000000D+00-0.16964854D+00
-0.16964854D+00 0.75176332D-02 0.00000000D+00 0.00000000D+00 0.00000000D+00
 0.00000000D+00 0.00000000D+00-0.25725205D-01 0.00000000D+00 0.00000000D+00
 0.16254424D-02 0.00000000D+00 0.00000000D+00 0.16254424D-02 0.00000000D+00
 0.17802669D+02 0.00000000D+00 0.00000000D+00-0.42912024D+01-0.87037437D+00
-0.87037437D+00-0.57300963D+00 0.00000000D+00 0.00000000D+00 0.00000000D+00
 0.00000000D+00 0.00000000D+00-0.27926244D+00 0.00000000D+00 0.00000000D+00
-0.99015201D-01 0.00000000D+00 0.00000000D+00-0.99015201D-01 0.00000000D+00
 0.17810189D-01-0.50771595D-01 0.77435890D-01-0.62842497D+00 0.00000000D+00
 0.00000000D+00 0.14236019D-01 0.00000000D+00 0.00000000D+00-0.31447023D+00
 0.00000000D+00 0.00000000D+00-0.12730261D+00 0.13752196D-01 0.13752196D-01
 0.77226564D-02 0.00000000D+00 0.00000000D+00 0.00000000D+00 0.16964854D+00
 0.16964854D+00-0.75176332D-02 0.00000000D+00 0.00000000D+00 0.00000000D+00
 0.00000000D+00 0.00000000D+00-0.25725205D-01 0.00000000D+00 0.00000000D+00
 0.16254424D-02 0.00000000D+00 0.00000000D+00 0.16254424D-02 0.00000000D+00
-0.17802669D+02 0.00000000D+00 0.00000000D+00-0.42912024D+01 0.87037437D+00
 0.87037437D+00 0.57300963D+00 0.00000000D+00 0.00000000D+00 0.00000000D+00
 0.00000000D+00 0.00000000D+00-0.27926244D+00 0.00000000D+00 0.00000000D+00
-0.99015201D-01 0.00000000D+00 0.00000000D+00-0.99015201D-01 0.00000000D+00
    9 Alpha MO OE= 0.92019491D-01
 0.22764496D-01-0.72040332D-01-0.15761185D+00 0.50379407D+00 0.00000000D+00
 0.00000000D+00-0.40979250D-01 0.00000000D+00 0.00000000D+00-0.63867677D-01
 0.00000000D+00 0.00000000D+00 0.16003049D-01-0.25120915D-01-0.25120915D-01
-0.15360086D-01 0.00000000D+00 0.00000000D+00 0.00000000D+00-0.18744076D+00
-0.18744076D+00-0.29537908D+00 0.00000000D+00 0.00000000D+00 0.00000000D+00
 0.00000000D+00 0.00000000D+00 0.96431076D-02 0.00000000D+00 0.00000000D+00
 0.95300001D-03 0.00000000D+00 0.00000000D+00 0.95300001D-03 0.00000000D+00
 0.16485159D+01 0.00000000D+00 0.00000000D+00 0.65229545D+00-0.40161515D+00
-0.40161515D+00-0.80827787D+00 0.00000000D+00 0.00000000D+00 0.00000000D+00
 0.00000000D+00 0.00000000D+00 0.17935573D+00 0.00000000D+00 0.00000000D+00
 0.11530886D-01 0.00000000D+00 0.00000000D+00 0.11530886D-01 0.00000000D+00
 0.22764496D-01-0.72040332D-01-0.15761185D+00 0.50379407D+00 0.00000000D+00
 0.00000000D+00 0.40979250D-01 0.00000000D+00 0.00000000D+00 0.63867677D-01
 0.00000000D+00 0.00000000D+00-0.16003049D-01-0.25120915D-01-0.25120915D-01
-0.15360086D-01 0.00000000D+00 0.00000000D+00 0.00000000D+00-0.18744076D+00
-0.18744076D+00-0.29537908D+00 0.00000000D+00 0.00000000D+00 0.00000000D+00
 0.00000000D+00 0.00000000D+00-0.96431076D-02 0.00000000D+00 0.00000000D+00
-0.95300001D-03 0.00000000D+00 0.00000000D+00-0.95300001D-03 0.00000000D+00
 0.16485159D+01 0.00000000D+00 0.00000000D+00-0.65229545D+00-0.40161515D+00
-0.40161515D+00-0.80827787D+00 0.00000000D+00 0.00000000D+00 0.00000000D+00
 0.00000000D+00 0.00000000D+00-0.17935573D+00 0.00000000D+00 0.00000000D+00
-0.11530886D-01 0.00000000D+00 0.00000000D+00-0.11530886D-01 0.00000000D+00
   10 Alpha MO OE= 0.11664280D+00
 0.00000000D+00 0.00000000D+00 0.00000000D+00 0.00000000D+00-0.31523307D-01
 0.00000000D+00 0.00000000D+00-0.26834468D-01 0.00000000D+00 0.00000000D+00
-0.65225654D+00 0.00000000D+00 0.00000000D+00 0.00000000D+00 0.00000000D+00
 0.00000000D+00 0.00000000D+00 0.37703087D-02 0.00000000D+00 0.00000000D+00
 0.00000000D+00 0.00000000D+00 0.00000000D+00 0.18032946D-01 0.00000000D+00
 0.31885755D-01 0.00000000D+00 0.00000000D+00 0.14259743D-01 0.00000000D+00
 0.00000000D+00 0.13725757D-01 0.00000000D+00 0.00000000D+00 0.00000000D+00
 0.00000000D+00 0.69933740D+00 0.00000000D+00 0.00000000D+00 0.00000000D+00
 0.00000000D+00 0.00000000D+00 0.00000000D+00-0.13721067D-01 0.00000000D+00
 0.21767977D+00 0.00000000D+00 0.00000000D+00 0.97349352D-01 0.00000000D+00
 0.00000000D+00 0.89811012D-01 0.00000000D+00 0.00000000D+00 0.00000000D+00
 0.00000000D+00 0.00000000D+00 0.00000000D+00 0.00000000D+00-0.31523307D-01
 0.00000000D+00 0.00000000D+00-0.26834468D-01 0.00000000D+00 0.00000000D+00
-0.65225654D+00 0.00000000D+00 0.00000000D+00 0.00000000D+00 0.00000000D+00
 0.00000000D+00 0.00000000D+00-0.37703087D-02 0.00000000D+00 0.00000000D+00
 0.00000000D+00 0.00000000D+00 0.00000000D+00-0.18032946D-01 0.00000000D+00
 0.31885755D-01 0.00000000D+00 0.00000000D+00 0.14259743D-01 0.00000000D+00
 0.00000000D+00 0.13725757D-01 0.00000000D+00 0.00000000D+00 0.00000000D+00
 0.00000000D+00 0.69933740D+00 0.00000000D+00 0.00000000D+00 0.00000000D+00
 0.00000000D+00 0.00000000D+00 0.00000000D+00 0.13721067D-01 0.00000000D+00
 0.21767977D+00 0.00000000D+00 0.00000000D+00 0.97349352D-01 0.00000000D+00
 0.00000000D+00 0.89811012D-01 0.00000000D+00 0.00000000D+00 0.00000000D+00
   11 Alpha MO OE= 0.11664280D+00
 0.00000000D+00 0.00000000D+00 0.00000000D+00 0.00000000D+00 0.00000000D+00
-0.31523307D-01 0.00000000D+00 0.00000000D+00-0.26834468D-01 0.00000000D+00
 0.00000000D+00-0.65225654D+00 0.00000000D+00 0.00000000D+00 0.00000000D+00
 0.00000000D+00 0.00000000D+00 0.00000000D+00 0.37703087D-02 0.00000000D+00
 0.00000000D+00 0.00000000D+00 0.00000000D+00 0.00000000D+00 0.18032946D-01
 0.00000000D+00 0.31885755D-01 0.00000000D+00 0.00000000D+00 0.14259743D-01
 0.00000000D+00 0.00000000D+00 0.13725757D-01 0.00000000D+00 0.00000000D+00
 0.00000000D+00 0.00000000D+00 0.69933740D+00 0.00000000D+00 0.00000000D+00
 0.00000000D+00 0.00000000D+00 0.00000000D+00 0.00000000D+00-0.13721067D-01
 0.00000000D+00 0.21767977D+00 0.00000000D+00 0.00000000D+00 0.97349352D-01
 0.00000000D+00 0.00000000D+00 0.89811012D-01 0.00000000D+00 0.00000000D+00
 0.00000000D+00 0.00000000D+00 0.00000000D+00 0.00000000D+00 0.00000000D+00
-0.31523307D-01 0.00000000D+00 0.00000000D+00-0.26834468D-01 0.00000000D+00
 0.00000000D+00-0.65225654D+00 0.00000000D+00 0.00000000D+00 0.00000000D+00
 0.00000000D+00 0.00000000D+00 0.00000000D+00-0.37703087D-02 0.00000000D+00
 0.00000000D+00 0.00000000D+00 0.00000000D+00 0.00000000D+00-0.18032946D-01
 0.00000000D+00 0.31885755D-01 0.00000000D+00 0.00000000D+00 0.14259743D-01
 0.00000000D+00 0.00000000D+00 0.13725757D-01 0.00000000D+00 0.00000000D+00
 0.00000000D+00 0.00000000D+00 0.69933740D+00 0.00000000D+00 0.00000000D+00
 0.00000000D+00 0.00000000D+00 0.00000000D+00 0.00000000D+00 0.13721067D-01
 0.00000000D+00 0.21767977D+00 0.00000000D+00 0.00000000D+00 0.97349352D-01
 0.00000000D+00 0.00000000D+00 0.89811012D-01 0.00000000D+00 0.00000000D+00
   12 Alpha MO OE= 0.11725915D+00
 0.00000000D+00 0.00000000D+00 0.00000000D+00 0.00000000D+00 0.14335002D+00
 0.00000000D+00 0.00000000D+00 0.24618545D+00 0.00000000D+00 0.00000000D+00
 0.36930387D+00 0.00000000D+00 0.00000000D+00 0.00000000D+00 0.00000000D+00
 0.00000000D+00 0.00000000D+00 0.95128759D-02 0.00000000D+00 0.00000000D+00
 0.00000000D+00 0.00000000D+00 0.00000000D+00-0.34603365D-01 0.00000000D+00
 0.15251759D-01 0.00000000D+00 0.00000000D+00 0.68207938D-02 0.00000000D+00
 0.00000000D+00 0.41030777D-02 0.00000000D+00 0.00000000D+00 0.00000000D+00
 0.00000000D+00 0.19122638D+01 0.00000000D+00 0.00000000D+00 0.00000000D+00
 0.00000000D+00 0.00000000D+00 0.00000000D+00-0.22518512D+00 0.00000000D+00
 0.83459370D-01 0.00000000D+00 0.00000000D+00 0.37324165D-01 0.00000000D+00
 0.00000000D+00 0.86924713D-01 0.00000000D+00 0.00000000D+00 0.00000000D+00
 0.00000000D+00 0.00000000D+00 0.00000000D+00 0.00000000D+00-0.14335002D+00
 0.00000000D+00 0.00000000D+00-0.24618545D+00 0.00000000D+00 0.00000000D+00
-0.36930387D+00 0.00000000D+00 0.00000000D+00 0.00000000D+00 0.00000000D+00
 0.00000000D+00 0.00000000D+00 0.95128759D-02 0.00000000D+00 0.00000000D+00
 0.00000000D+00 0.00000000D+00 0.00000000D+00-0.34603365D-01 0.00000000D+00
-0.15251759D-01 0.00000000D+00 0.00000000D+00-0.68207938D-02 0.00000000D+00
 0.00000000D+00-0.41030777D-02 0.00000000D+00 0.00000000D+00 0.00000000D+00
 0.00000000D+00-0.19122638D+01 0.00000000D+00 0.00000000D+00 0.00000000D+00
 0.00000000D+00 0.00000000D+00 0.00000000D+00-0.22518512D+00 0.00000000D+00
-0.83459370D-01 0.00000000D+00 0.00000000D+00-0.37324165D-01 0.00000000D+00
 0.00000000D+00-0.86924713D-01 0.00000000D+00 0.00000000D+00 0.00000000D+00
   13 Alpha MO OE= 0.11725915D+00
 0.00000000D+00 0.00000000D+00 0.00000000D+00 0.00000000D+00 0.00000000D+00
 0.14335002D+00 0.00000000D+00 0.00000000D+00 0.24618545D+00 0.00000000D+00
 0.00000000D+00 0.36930387D+00 0.00000000D+00 0.00000000D+00 0.00000000D+00
 0.00000000D+00 0.00000000D+00 0.00000000D+00 0.95128759D-02 0.00000000D+00
 0.00000000D+00 0.00000000D+00 0.00000000D+00 0.00000000D+00-0.34603365D-01
 0.00000000D+00 0.15251759D-01 0.00000000D+00 0.00000000D+00 0.68207938D-02
 0.00000000D+00 0.00000000D+00 0.41030777D-02 0.00000000D+00 0.00000000D+00
 0.00000000D+00 0.00000000D+00 0.19122638D+01 0.00000000D+00 0.00000000D+00
 0.00000000D+00 0.00000000D+00 0.00000000D+00 0.00000000D+00-0.22518512D+00
 0.00000000D+00 0.83459370D-01 0.00000000D+00 0.00000000D+00 0.37324165D-01
 0.00000000D+00 0.00000000D+00 0.86924713D-01 0.00000000D+00 0.00000000D+00
 0.00000000D+00 0.00000000D+00 0.00000000D+00 0.00000000D+00 0.00000000D+00
-0.14335002D+00 0.00000000D+00 0.00000000D+00-0.24618545D+00 0.00000000D+00
 0.00000000D+00-0.36930387D+00 0.00000000D+00 0.00000000D+00 0.00000000D+00
 0.00000000D+00 0.00000000D+00 0.00000000D+00 0.95128759D-02 0.00000000D+00
 0.00000000D+00 0.00000000D+00 0.00000000D+00 0.00000000D+00-0.34603365D-01
 0.00000000D+00-0.15251759D-01 0.00000000D+00 0.00000000D+00-0.68207938D-02
 0.00000000D+00 0.00000000D+00-0.41030777D-02 0.00000000D+00 0.00000000D+00
 0.00000000D+00 0.00000000D+00-0.19122638D+01 0.00000000D+00 0.00000000D+00
 0.00000000D+00 0.00000000D+00 0.00000000D+00 0.00000000D+00-0.22518512D+00
 0.00000000D+00-0.83459370D-01 0.00000000D+00 0.00000000D+00-0.37324165D-01
 0.00000000D+00 0.00000000D+00-0.86924713D-01 0.00000000D+00 0.00000000D+00
   14 Alpha MO OE= 0.15639379D+00
-0.62645249D-02 0.10154176D+00 0.98199167D-01 0.43141534D+00 0.00000000D+00
 0.00000000D+00 0.90069807D-04 0.00000000D+00 0.00000000D+00-0.49639781D-01
 0.00000000D+00 0.00000000D+00 0.26641500D+00 0.70925357D-02 0.70925357D-02
 0.92528458D-02 0.00000000D+00 0.00000000D+00 0.00000000D+00 0.86468858D-01
 0.86468858D-01 0.13825026D+00 0.00000000D+00 0.00000000D+00 0.00000000D+00
 0.00000000D+00 0.00000000D+00 0.64042813D-02 0.00000000D+00 0.00000000D+00
 0.87468142D-02 0.00000000D+00 0.00000000D+00 0.87468142D-02 0.00000000D+00
-0.55263011D+00 0.00000000D+00 0.00000000D+00 0.21034704D+01 0.36916773D+00
 0.36916773D+00-0.13656137D+00 0.00000000D+00 0.00000000D+00 0.00000000D+00
 0.00000000D+00 0.00000000D+00 0.50842725D-02 0.00000000D+00 0.00000000D+00
-0.14882652D-01 0.00000000D+00 0.00000000D+00-0.14882652D-01 0.00000000D+00
-0.62645249D-02 0.10154176D+00 0.98199167D-01 0.43141534D+00 0.00000000D+00
 0.00000000D+00-0.90069807D-04 0.00000000D+00 0.00000000D+00 0.49639781D-01
 0.00000000D+00 0.00000000D+00-0.26641500D+00 0.70925357D-02 0.70925357D-02
 0.92528458D-02 0.00000000D+00 0.00000000D+00 0.00000000D+00 0.86468858D-01
 0.86468858D-01 0.13825026D+00 0.00000000D+00 0.00000000D+00 0.00000000D+00
 0.00000000D+00 0.00000000D+00-0.64042813D-02 0.00000000D+00 0.00000000D+00
-0.87468142D-02 0.00000000D+00 0.00000000D+00-0.87468142D-02 0.00000000D+00
-0.55263011D+00 0.00000000D+00 0.00000000D+00-0.21034704D+01 0.36916773D+00
 0.36916773D+00-0.13656137D+00 0.00000000D+00 0.00000000D+00 0.00000000D+00
 0.00000000D+00 0.00000000D+00-0.50842725D-02 0.00000000D+00 0.00000000D+00
 0.14882652D-01 0.00000000D+00 0.00000000D+00 0.14882652D-01 0.00000000D+00
   15 Alpha MO OE= 0.20677298D+00
 0.00000000D+00 0.00000000D+00 0.00000000D+00 0.00000000D+00-0.18918734D+00
 0.00000000D+00 0.00000000D+00-0.69484669D-01 0.00000000D+00 0.00000000D+00
-0.14259410D+00 0.00000000D+00 0.00000000D+00 0.00000000D+00 0.00000000D+00
 0.00000000D+00 0.00000000D+00-0.24101538D-02 0.00000000D+00 0.00000000D+00
 0.00000000D+00 0.00000000D+00 0.00000000D+00-0.16144908D+00 0.00000000D+00
 0.71299173D-02 0.00000000D+00 0.00000000D+00 0.31885959D-02 0.00000000D+00
 0.00000000D+00 0.88353775D-02 0.00000000D+00 0.00000000D+00 0.00000000D+00
 0.00000000D+00 0.23085626D+01 0.00000000D+00 0.00000000D+00 0.00000000D+00
 0.00000000D+00 0.00000000D+00 0.00000000D+00-0.59608822D+00 0.00000000D+00
 0.17834391D+00 0.00000000D+00 0.00000000D+00 0.79757819D-01 0.00000000D+00
 0.00000000D+00 0.22038353D+00 0.00000000D+00 0.00000000D+00 0.00000000D+00
 0.00000000D+00 0.00000000D+00 0.00000000D+00 0.00000000D+00 0.18918734D+00
 0.00000000D+00 0.00000000D+00 0.69484669D-01 0.00000000D+00 0.00000000D+00
 0.14259410D+00 0.00000000D+00 0.00000000D+00 0.00000000D+00 0.00000000D+00
 0.00000000D+00 0.00000000D+00-0.24101538D-02 0.00000000D+00 0.00000000D+00
 0.00000000D+00 0.00000000D+00 0.00000000D+00-0.16144908D+00 0.00000000D+00
-0.71299173D-02 0.00000000D+00 0.00000000D+00-0.31885959D-02 0.00000000D+00
 0.00000000D+00-0.88353775D-02 0.00000000D+00 0.00000000D+00 0.00000000D+00
 0.00000000D+00-0.23085626D+01 0.00000000D+00 0.00000000D+00 0.00000000D+00
 0.00000000D+00 0.00000000D+00 0.00000000D+00-0.59608822D+00 0.00000000D+00
-0.17834391D+00 0.00000000D+00 0.00000000D+00-0.79757819D-01 0.00000000D+00
 0.00000000D+00-0.22038353D+00 0.00000000D+00 0.00000000D+00 0.00000000D+00
   16 Alpha MO OE= 0.20677298D+00
 0.00000000D+00 0.00000000D+00 0.00000000D+00 0.00000000D+00 0.00000000D+00
-0.18918734D+00 0.00000000D+00 0.00000000D+00-0.69484669D-01 0.00000000D+00
 0.00000000D+00-0.14259410D+00 0.00000000D+00 0.00000000D+00 0.00000000D+00
 0.00000000D+00 0.00000000D+00 0.00000000D+00-0.24101538D-02 0.00000000D+00
 0.00000000D+00 0.00000000D+00 0.00000000D+00 0.00000000D+00-0.16144908D+00
 0.00000000D+00 0.71299173D-02 0.00000000D+00 0.00000000D+00 0.31885959D-02
 0.00000000D+00 0.00000000D+00 0.88353775D-02 0.00000000D+00 0.00000000D+00
 0.00000000D+00 0.00000000D+00 0.23085626D+01 0.00000000D+00 0.00000000D+00
 0.00000000D+00 0.00000000D+00 0.00000000D+00 0.00000000D+00-0.59608822D+00
 0.00000000D+00 0.17834391D+00 0.00000000D+00 0.00000000D+00 0.79757819D-01
 0.00000000D+00 0.00000000D+00 0.22038353D+00 0.00000000D+00 0.00000000D+00
 0.00000000D+00 0.00000000D+00 0.00000000D+00 0.00000000D+00 0.00000000D+00
 0.18918734D+00 0.00000000D+00 0.00000000D+00 0.69484669D-01 0.00000000D+00
 0.00000000D+00 0.14259410D+00 0.00000000D+00 0.00000000D+00 0.00000000D+00
 0.00000000D+00 0.00000000D+00 0.00000000D+00-0.24101538D-02 0.00000000D+00
 0.00000000D+00 0.00000000D+00 0.00000000D+00 0.00000000D+00-0.16144908D+00
 0.00000000D+00-0.71299173D-02 0.00000000D+00 0.00000000D+00-0.31885959D-02
 0.00000000D+00 0.00000000D+00-0.88353775D-02 0.00000000D+00 0.00000000D+00
 0.00000000D+00 0.00000000D+00-0.23085626D+01 0.00000000D+00 0.00000000D+00
 0.00000000D+00 0.00000000D+00 0.00000000D+00 0.00000000D+00-0.59608822D+00
 0.00000000D+00-0.17834391D+00 0.00000000D+00 0.00000000D+00-0.79757819D-01
 0.00000000D+00 0.00000000D+00-0.22038353D+00 0.00000000D+00 0.00000000D+00
   17 Alpha MO OE= 0.24180815D+00
 0.31302115D-01-0.64292768D-01-0.14737798D+00-0.21844919D+02 0.00000000D+00
 0.00000000D+00-0.25478361D-01 0.00000000D+00 0.00000000D+00-0.11881473D+01
 0.00000000D+00 0.00000000D+00 0.11524443D+02-0.21836962D-01-0.21836962D-01
-0.79062779D-02 0.00000000D+00 0.00000000D+00 0.00000000D+00-0.22114979D+00
-0.22114979D+00-0.32696589D-01 0.00000000D+00 0.00000000D+00 0.00000000D+00
 0.00000000D+00 0.00000000D+00-0.71232077D-01 0.00000000D+00 0.00000000D+00
-0.96792952D-02 0.00000000D+00 0.00000000D+00-0.96792952D-02 0.00000000D+00
 0.41890845D+02 0.00000000D+00 0.00000000D+00-0.76090221D+01-0.36055380D+01
-0.36055380D+01-0.59475528D+01 0.00000000D+00 0.00000000D+00 0.00000000D+00
 0.00000000D+00 0.00000000D+00-0.14566972D+01 0.00000000D+00 0.00000000D+00
-0.66870593D+00 0.00000000D+00 0.00000000D+00-0.66870593D+00 0.00000000D+00
-0.31302115D-01 0.64292768D-01 0.14737798D+00 0.21844919D+02 0.00000000D+00
 0.00000000D+00-0.25478361D-01 0.00000000D+00 0.00000000D+00-0.11881473D+01
 0.00000000D+00 0.00000000D+00 0.11524443D+02 0.21836962D-01 0.21836962D-01
 0.79062779D-02 0.00000000D+00 0.00000000D+00 0.00000000D+00 0.22114979D+00
 0.22114979D+00 0.32696589D-01 0.00000000D+00 0.00000000D+00 0.00000000D+00
 0.00000000D+00 0.00000000D+00-0.71232077D-01 0.00000000D+00 0.00000000D+00
-0.96792952D-02 0.00000000D+00 0.00000000D+00-0.96792952D-02 0.00000000D+00
-0.41890845D+02 0.00000000D+00 0.00000000D+00-0.76090221D+01 0.36055380D+01
 0.36055380D+01 0.59475528D+01 0.00000000D+00 0.00000000D+00 0.00000000D+00
 0.00000000D+00 0.00000000D+00-0.14566972D+01 0.00000000D+00 0.00000000D+00
-0.66870593D+00 0.00000000D+00 0.00000000D+00-0.66870593D+00 0.00000000D+00
   18 Alpha MO OE= 0.40926014D+00
 0.34402320D-01-0.11968795D+00-0.21961528D+00 0.54136169D+02 0.00000000D+00
 0.00000000D+00 0.24595656D-01 0.00000000D+00 0.00000000D+00 0.77719931D+00
 0.00000000D+00 0.00000000D+00-0.27929953D+02-0.31883420D-01-0.31883420D-01
-0.43059056D-02 0.00000000D+00 0.00000000D+00 0.00000000D+00-0.42331289D+00
-0.42331289D+00 0.25646071D+00 0.00000000D+00 0.00000000D+00 0.00000000D+00
 0.00000000D+00 0.00000000D+00 0.10754447D-01 0.00000000D+00 0.00000000D+00
 0.28138189D-01 0.00000000D+00 0.00000000D+00 0.28138189D-01 0.00000000D+00
-0.16581765D+02 0.00000000D+00 0.00000000D+00 0.19579181D+01 0.34062143D+01
 0.34062143D+01 0.10933527D+02 0.00000000D+00 0.00000000D+00 0.00000000D+00
 0.00000000D+00 0.00000000D+00 0.16807437D+01 0.00000000D+00 0.00000000D+00
 0.95489490D+00 0.00000000D+00 0.00000000D+00 0.95489490D+00 0.00000000D+00
-0.34402320D-01 0.11968795D+00 0.21961528D+00-0.54136169D+02 0.00000000D+00
 0.00000000D+00 0.24595656D-01 0.00000000D+00 0.00000000D+00 0.77719931D+00
 0.00000000D+00 0.00000000D+00-0.27929953D+02 0.31883420D-01 0.31883420D-01
 0.43059056D-02 0.00000000D+00 0.00000000D+00 0.00000000D+00 0.42331289D+00
 0.42331289D+00-0.25646071D+00 0.00000000D+00 0.00000000D+00 0.00000000D+00
 0.00000000D+00 0.00000000D+00 0.10754447D-01 0.00000000D+00 0.00000000D+00
 0.28138189D-01 0.00000000D+00 0.00000000D+00 0.28138189D-01 0.00000000D+00
 0.16581765D+02 0.00000000D+00 0.00000000D+00 0.19579181D+01-0.34062143D+01
-0.34062143D+01-0.10933527D+02 0.00000000D+00 0.00000000D+00 0.00000000D+00
 0.00000000D+00 0.00000000D+00 0.16807437D+01 0.00000000D+00 0.00000000D+00
 0.95489490D+00 0.00000000D+00 0.00000000D+00 0.95489490D+00 0.00000000D+00
   19 Alpha MO OE= 0.41373913D+00
-0.90785523D-15 0.89123091D-14-0.77711249D-13 0.73772423D-12 0.00000000D+00
 0.00000000D+00 0.19823281D-14 0.00000000D+00 0.00000000D+00-0.40202882D-13
 0.00000000D+00 0.00000000D+00 0.45058461D-12 0.25140759D-01-0.25140759D-01
-0.15494163D-13 0.00000000D+00 0.00000000D+00 0.00000000D+00-0.45238503D-01
 0.45238503D-01-0.13558518D-12 0.00000000D+00 0.00000000D+00 0.00000000D+00
 0.00000000D+00 0.00000000D+00-0.58602733D-14 0.00000000D+00 0.00000000D+00
-0.63867520D-02 0.00000000D+00 0.00000000D+00 0.63867520D-02 0.00000000D+00
 0.12726787D-12 0.00000000D+00 0.00000000D+00 0.11159653D-12 0.48817301D+00
-0.48817301D+00-0.46324345D-12 0.00000000D+00 0.00000000D+00 0.00000000D+00
 0.00000000D+00 0.00000000D+00-0.25929162D-13 0.00000000D+00 0.00000000D+00
 0.34615034D-02 0.00000000D+00 0.00000000D+00-0.34615034D-02 0.00000000D+00
-0.90785523D-15 0.89123091D-14-0.77711249D-13 0.73772423D-12 0.00000000D+00
 0.00000000D+00-0.19823281D-14 0.00000000D+00 0.00000000D+00 0.40202882D-13
 0.00000000D+00 0.00000000D+00-0.45058461D-12 0.25140759D-01-0.25140759D-01
-0.15494163D-13 0.00000000D+00 0.00000000D+00 0.00000000D+00-0.45238503D-01
 0.45238503D-01-0.13558518D-12 0.00000000D+00 0.00000000D+00 0.00000000D+00
 0.00000000D+00 0.00000000D+00 0.58602733D-14 0.00000000D+00 0.00000000D+00
 0.63867520D-02 0.00000000D+00 0.00000000D+00-0.63867520D-02 0.00000000D+00
 0.12726787D-12 0.00000000D+00 0.00000000D+00-0.11159653D-12 0.48817301D+00
-0.48817301D+00-0.46324345D-12 0.00000000D+00 0.00000000D+00 0.00000000D+00
 0.00000000D+00 0.00000000D+00 0.25929162D-13 0.00000000D+00 0.00000000D+00
-0.34615034D-02 0.00000000D+00 0.00000000D+00 0.34615034D-02 0.00000000D+00
   20 Alpha MO OE= 0.41373913D+00
 0.00000000D+00 0.00000000D+00 0.00000000D+00 0.00000000D+00 0.00000000D+00
 0.00000000D+00 0.00000000D+00 0.00000000D+00 0.00000000D+00 0.00000000D+00
 0.00000000D+00 0.00000000D+00 0.00000000D+00 0.00000000D+00 0.00000000D+00
 0.00000000D+00 0.29030048D-01 0.00000000D+00 0.00000000D+00 0.00000000D+00
 0.00000000D+00 0.00000000D+00-0.52236924D-01 0.00000000D+00 0.00000000D+00
 0.00000000D+00 0.00000000D+00 0.00000000D+00 0.00000000D+00 0.00000000D+00
 0.00000000D+00 0.00000000D+00 0.00000000D+00 0.00000000D+00-0.73747860D-02
 0.00000000D+00 0.00000000D+00 0.00000000D+00 0.00000000D+00 0.00000000D+00
 0.00000000D+00 0.00000000D+00 0.56369363D+00 0.00000000D+00 0.00000000D+00
 0.00000000D+00 0.00000000D+00 0.00000000D+00 0.00000000D+00 0.00000000D+00
 0.00000000D+00 0.00000000D+00 0.00000000D+00 0.00000000D+00 0.39969998D-02
 0.00000000D+00 0.00000000D+00 0.00000000D+00 0.00000000D+00 0.00000000D+00
 0.00000000D+00 0.00000000D+00 0.00000000D+00 0.00000000D+00 0.00000000D+00
 0.00000000D+00 0.00000000D+00 0.00000000D+00 0.00000000D+00 0.00000000D+00
 0.00000000D+00 0.29030048D-01 0.00000000D+00 0.00000000D+00 0.00000000D+00
 0.00000000D+00 0.00000000D+00-0.52236924D-01 0.00000000D+00 0.00000000D+00
 0.00000000D+00 0.00000000D+00 0.00000000D+00 0.00000000D+00 0.00000000D+00
 0.00000000D+00 0.00000000D+00 0.00000000D+00 0.00000000D+00 0.73747860D-02
 0.00000000D+00 0.00000000D+00 0.00000000D+00 0.00000000D+00 0.00000000D+00
 0.00000000D+00 0.00000000D+00 0.56369363D+00 0.00000000D+00 0.00000000D+00
 0.00000000D+00 0.00000000D+00 0.00000000D+00 0.00000000D+00 0.00000000D+00
 0.00000000D+00 0.00000000D+00 0.00000000D+00 0.00000000D+00-0.39969998D-02
   21 Alpha MO OE= 0.43228055D+00
-0.72228477D-01 0.98640775D-01-0.38691534D+00 0.26947617D+01 0.00000000D+00
 0.00000000D+00 0.58962942D-01 0.00000000D+00 0.00000000D+00 0.61331202D-01
 0.00000000D+00 0.00000000D+00 0.37855407D+00-0.73361663D-01-0.73361663D-01
-0.38949423D-01 0.00000000D+00 0.00000000D+00 0.00000000D+00-0.59303281D+00
-0.59303281D+00-0.86733813D+00 0.00000000D+00 0.00000000D+00 0.00000000D+00
 0.00000000D+00 0.00000000D+00 0.16713664D-01 0.00000000D+00 0.00000000D+00
-0.28601465D-02 0.00000000D+00 0.00000000D+00-0.28601465D-02 0.00000000D+00
 0.21424177D+01 0.00000000D+00 0.00000000D+00-0.21804082D+00-0.12979109D+01
-0.12979109D+01-0.19762298D+01 0.00000000D+00 0.00000000D+00 0.00000000D+00
 0.00000000D+00 0.00000000D+00 0.42986291D+00 0.00000000D+00 0.00000000D+00
 0.27463278D-01 0.00000000D+00 0.00000000D+00 0.27463278D-01 0.00000000D+00
-0.72228477D-01 0.98640775D-01-0.38691534D+00 0.26947617D+01 0.00000000D+00
 0.00000000D+00-0.58962942D-01 0.00000000D+00 0.00000000D+00-0.61331202D-01
 0.00000000D+00 0.00000000D+00-0.37855407D+00-0.73361663D-01-0.73361663D-01
-0.38949423D-01 0.00000000D+00 0.00000000D+00 0.00000000D+00-0.59303281D+00
-0.59303281D+00-0.86733813D+00 0.00000000D+00 0.00000000D+00 0.00000000D+00
 0.00000000D+00 0.00000000D+00-0.16713664D-01 0.00000000D+00 0.00000000D+00
 0.28601465D-02 0.00000000D+00 0.00000000D+00 0.28601465D-02 0.00000000D+00
 0.21424177D+01 0.00000000D+00 0.00000000D+00 0.21804082D+00-0.12979109D+01
-0.12979109D+01-0.19762298D+01 0.00000000D+00 0.00000000D+00 0.00000000D+00
 0.00000000D+00 0.00000000D+00-0.42986291D+00 0.00000000D+00 0.00000000D+00
-0.27463278D-01 0.00000000D+00 0.00000000D+00-0.27463278D-01 0.00000000D+00
   22 Alpha MO OE= 0.48337024D+00
 0.25937641D-01 0.12682423D+00-0.81006284D-02 0.25674516D+01 0.00000000D+00
 0.00000000D+00 0.86176636D-01 0.00000000D+00 0.00000000D+00-0.10299482D+00
 0.00000000D+00 0.00000000D+00 0.16156196D+01-0.67214219D-02-0.67214219D-02
-0.34074135D-01 0.00000000D+00 0.00000000D+00 0.00000000D+00-0.50296443D-01
-0.50296443D-01-0.18608351D+00 0.00000000D+00 0.00000000D+00 0.00000000D+00
 0.00000000D+00 0.00000000D+00 0.19112097D-01 0.00000000D+00 0.00000000D+00
 0.13192053D-01 0.00000000D+00 0.00000000D+00 0.13192053D-01 0.00000000D+00
-0.83410474D-01 0.00000000D+00 0.00000000D+00 0.17115114D+01 0.46164917D+00
 0.46164917D+00-0.24496220D+01 0.00000000D+00 0.00000000D+00 0.00000000D+00
 0.00000000D+00 0.00000000D+00 0.19007006D+00 0.00000000D+00 0.00000000D+00
-0.99629909D-01 0.00000000D+00 0.00000000D+00-0.99629909D-01 0.00000000D+00
 0.25937641D-01 0.12682423D+00-0.81006284D-02 0.25674516D+01 0.00000000D+00
 0.00000000D+00-0.86176636D-01 0.00000000D+00 0.00000000D+00 0.10299482D+00
 0.00000000D+00 0.00000000D+00-0.16156196D+01-0.67214219D-02-0.67214219D-02
-0.34074135D-01 0.00000000D+00 0.00000000D+00 0.00000000D+00-0.50296443D-01
-0.50296443D-01-0.18608351D+00 0.00000000D+00 0.00000000D+00 0.00000000D+00
 0.00000000D+00 0.00000000D+00-0.19112097D-01 0.00000000D+00 0.00000000D+00
-0.13192053D-01 0.00000000D+00 0.00000000D+00-0.13192053D-01 0.00000000D+00
-0.83410474D-01 0.00000000D+00 0.00000000D+00-0.17115114D+01 0.46164917D+00
 0.46164917D+00-0.24496220D+01 0.00000000D+00 0.00000000D+00 0.00000000D+00
 0.00000000D+00 0.00000000D+00-0.19007006D+00 0.00000000D+00 0.00000000D+00
 0.99629909D-01 0.00000000D+00 0.00000000D+00 0.99629909D-01 0.00000000D+00
   23 Alpha MO OE= 0.51572804D+00
 0.00000000D+00 0.00000000D+00 0.00000000D+00 0.00000000D+00-0.17067083D+00
 0.00000000D+00 0.00000000D+00-0.34565896D+00 0.00000000D+00 0.00000000D+00
 0.23182913D+01 0.00000000D+00 0.00000000D+00 0.00000000D+00 0.00000000D+00
 0.00000000D+00 0.00000000D+00 0.25603588D-01 0.00000000D+00 0.00000000D+00
 0.00000000D+00 0.00000000D+00 0.00000000D+00-0.17959747D-01 0.00000000D+00
-0.10468347D+00 0.00000000D+00 0.00000000D+00-0.46815872D-01 0.00000000D+00
 0.00000000D+00-0.57410580D-01 0.00000000D+00 0.00000000D+00 0.00000000D+00
 0.00000000D+00-0.52353299D+00 0.00000000D+00 0.00000000D+00 0.00000000D+00
 0.00000000D+00 0.00000000D+00 0.00000000D+00 0.40036630D+00 0.00000000D+00
-0.82457445D+00 0.00000000D+00 0.00000000D+00-0.36876090D+00 0.00000000D+00
 0.00000000D+00-0.39936267D+00 0.00000000D+00 0.00000000D+00 0.00000000D+00
 0.00000000D+00 0.00000000D+00 0.00000000D+00 0.00000000D+00-0.17067083D+00
 0.00000000D+00 0.00000000D+00-0.34565896D+00 0.00000000D+00 0.00000000D+00
 0.23182913D+01 0.00000000D+00 0.00000000D+00 0.00000000D+00 0.00000000D+00
 0.00000000D+00 0.00000000D+00-0.25603588D-01 0.00000000D+00 0.00000000D+00
 0.00000000D+00 0.00000000D+00 0.00000000D+00 0.17959747D-01 0.00000000D+00
-0.10468347D+00 0.00000000D+00 0.00000000D+00-0.46815872D-01 0.00000000D+00
 0.00000000D+00-0.57410580D-01 0.00000000D+00 0.00000000D+00 0.00000000D+00
 0.00000000D+00-0.52353299D+00 0.00000000D+00 0.00000000D+00 0.00000000D+00
 0.00000000D+00 0.00000000D+00 0.00000000D+00-0.40036630D+00 0.00000000D+00
-0.82457445D+00 0.00000000D+00 0.00000000D+00-0.36876090D+00 0.00000000D+00
 0.00000000D+00-0.39936267D+00 0.00000000D+00 0.00000000D+00 0.00000000D+00
   24 Alpha MO OE= 0.51572804D+00
 0.00000000D+00 0.00000000D+00 0.00000000D+00 0.00000000D+00 0.00000000D+00
-0.17067083D+00 0.00000000D+00 0.00000000D+00-0.34565896D+00 0.00000000D+00
 0.00000000D+00 0.23182913D+01 0.00000000D+00 0.00000000D+00 0.00000000D+00
 0.00000000D+00 0.00000000D+00 0.00000000D+00 0.25603588D-01 0.00000000D+00
 0.00000000D+00 0.00000000D+00 0.00000000D+00 0.00000000D+00-0.17959747D-01
 0.00000000D+00-0.10468347D+00 0.00000000D+00 0.00000000D+00-0.46815872D-01
 0.00000000D+00 0.00000000D+00-0.57410580D-01 0.00000000D+00 0.00000000D+00
 0.00000000D+00 0.00000000D+00-0.52353299D+00 0.00000000D+00 0.00000000D+00
 0.00000000D+00 0.00000000D+00 0.00000000D+00 0.00000000D+00 0.40036630D+00
 0.00000000D+00-0.82457445D+00 0.00000000D+00 0.00000000D+00-0.36876090D+00
 0.00000000D+00 0.00000000D+00-0.39936267D+00 0.00000000D+00 0.00000000D+00
 0.00000000D+00 0.00000000D+00 0.00000000D+00 0.00000000D+00 0.00000000D+00
-0.17067083D+00 0.00000000D+00 0.00000000D+00-0.34565896D+00 0.00000000D+00
 0.00000000D+00 0.23182913D+01 0.00000000D+00 0.00000000D+00 0.00000000D+00
 0.00000000D+00 0.00000000D+00 0.00000000D+00-0.25603588D-01 0.00000000D+00
 0.00000000D+00 0.00000000D+00 0.00000000D+00 0.00000000D+00 0.17959747D-01
 0.00000000D+00-0.10468347D+00 0.00000000D+00 0.00000000D+00-0.46815872D-01
 0.00000000D+00 0.00000000D+00-0.57410580D-01 0.00000000D+00 0.00000000D+00
 0.00000000D+00 0.00000000D+00-0.52353299D+00 0.00000000D+00 0.00000000D+00
 0.00000000D+00 0.00000000D+00 0.00000000D+00 0.00000000D+00-0.40036630D+00
 0.00000000D+00-0.82457445D+00 0.00000000D+00 0.00000000D+00-0.36876090D+00
 0.00000000D+00 0.00000000D+00-0.39936267D+00 0.00000000D+00 0.00000000D+00
   25 Alpha MO OE= 0.57533362D+00
 0.00000000D+00 0.00000000D+00 0.00000000D+00 0.00000000D+00 0.15672949D+00
 0.00000000D+00 0.00000000D+00 0.57750966D+00 0.00000000D+00 0.00000000D+00
 0.43723255D+01 0.00000000D+00 0.00000000D+00 0.00000000D+00 0.00000000D+00
 0.00000000D+00 0.00000000D+00 0.19239441D-01 0.00000000D+00 0.00000000D+00
 0.00000000D+00 0.00000000D+00 0.00000000D+00-0.42410128D+00 0.00000000D+00
 0.31379729D-01 0.00000000D+00 0.00000000D+00 0.14033442D-01 0.00000000D+00
 0.00000000D+00 0.49037758D-02 0.00000000D+00 0.00000000D+00 0.00000000D+00
 0.00000000D+00 0.20457799D+01 0.00000000D+00 0.00000000D+00 0.00000000D+00
 0.00000000D+00 0.00000000D+00 0.00000000D+00-0.30721049D+01 0.00000000D+00
 0.16520510D+00 0.00000000D+00 0.00000000D+00 0.73881965D-01 0.00000000D+00
 0.00000000D+00 0.54723028D+00 0.00000000D+00 0.00000000D+00 0.00000000D+00
 0.00000000D+00 0.00000000D+00 0.00000000D+00 0.00000000D+00-0.15672949D+00
 0.00000000D+00 0.00000000D+00-0.57750966D+00 0.00000000D+00 0.00000000D+00
-0.43723255D+01 0.00000000D+00 0.00000000D+00 0.00000000D+00 0.00000000D+00
 0.00000000D+00 0.00000000D+00 0.19239441D-01 0.00000000D+00 0.00000000D+00
 0.00000000D+00 0.00000000D+00 0.00000000D+00-0.42410128D+00 0.00000000D+00
-0.31379729D-01 0.00000000D+00 0.00000000D+00-0.14033442D-01 0.00000000D+00
 0.00000000D+00-0.49037758D-02 0.00000000D+00 0.00000000D+00 0.00000000D+00
 0.00000000D+00-0.20457799D+01 0.00000000D+00 0.00000000D+00 0.00000000D+00
 0.00000000D+00 0.00000000D+00 0.00000000D+00-0.30721049D+01 0.00000000D+00
-0.16520510D+00 0.00000000D+00 0.00000000D+00-0.73881965D-01 0.00000000D+00
 0.00000000D+00-0.54723028D+00 0.00000000D+00 0.00000000D+00 0.00000000D+00
   26 Alpha MO OE= 0.57533362D+00
 0.00000000D+00 0.00000000D+00 0.00000000D+00 0.00000000D+00 0.00000000D+00
 0.15672949D+00 0.00000000D+00 0.00000000D+00 0.57750966D+00 0.00000000D+00
 0.00000000D+00 0.43723255D+01 0.00000000D+00 0.00000000D+00 0.00000000D+00
 0.00000000D+00 0.00000000D+00 0.00000000D+00 0.19239441D-01 0.00000000D+00
 0.00000000D+00 0.00000000D+00 0.00000000D+00 0.00000000D+00-0.42410128D+00
 0.00000000D+00 0.31379729D-01 0.00000000D+00 0.00000000D+00 0.14033442D-01
 0.00000000D+00 0.00000000D+00 0.49037758D-02 0.00000000D+00 0.00000000D+00
 0.00000000D+00 0.00000000D+00 0.20457799D+01 0.00000000D+00 0.00000000D+00
 0.00000000D+00 0.00000000D+00 0.00000000D+00 0.00000000D+00-0.30721049D+01
 0.00000000D+00 0.16520510D+00 0.00000000D+00 0.00000000D+00 0.73881965D-01
 0.00000000D+00 0.00000000D+00 0.54723028D+00 0.00000000D+00 0.00000000D+00
 0.00000000D+00 0.00000000D+00 0.00000000D+00 0.00000000D+00 0.00000000D+00
-0.15672949D+00 0.00000000D+00 0.00000000D+00-0.57750966D+00 0.00000000D+00
 0.00000000D+00-0.43723255D+01 0.00000000D+00 0.00000000D+00 0.00000000D+00
 0.00000000D+00 0.00000000D+00 0.00000000D+00 0.19239441D-01 0.00000000D+00
 0.00000000D+00 0.00000000D+00 0.00000000D+00 0.00000000D+00-0.42410128D+00
 0.00000000D+00-0.31379729D-01 0.00000000D+00 0.00000000D+00-0.14033442D-01
 0.00000000D+00 0.00000000D+00-0.49037758D-02 0.00000000D+00 0.00000000D+00
 0.00000000D+00 0.00000000D+00-0.20457799D+01 0.00000000D+00 0.00000000D+00
 0.00000000D+00 0.00000000D+00 0.00000000D+00 0.00000000D+00-0.30721049D+01
 0.00000000D+00-0.16520510D+00 0.00000000D+00 0.00000000D+00-0.73881965D-01
 0.00000000D+00 0.00000000D+00-0.54723028D+00 0.00000000D+00 0.00000000D+00
   27 Alpha MO OE= 0.58229144D+00
-0.28362578D-12 0.68606077D-12-0.26765202D-11 0.10725856D-09 0.00000000D+00
 0.00000000D+00 0.11050680D-12 0.00000000D+00 0.00000000D+00-0.24488877D-11
 0.00000000D+00 0.00000000D+00-0.56473701D-10 0.15010504D-01-0.15010504D-01
-0.24560228D-12 0.00000000D+00 0.00000000D+00 0.00000000D+00-0.17207274D-01
 0.17207274D-01-0.57741324D-12 0.00000000D+00 0.00000000D+00 0.00000000D+00
 0.00000000D+00 0.00000000D+00-0.41494184D-12 0.00000000D+00 0.00000000D+00
 0.21719129D-01 0.00000000D+00 0.00000000D+00-0.21719129D-01 0.00000000D+00
 0.70126190D-10 0.00000000D+00 0.00000000D+00-0.11581092D-10 0.13622363D+01
-0.13622363D+01 0.58919429D-11 0.00000000D+00 0.00000000D+00 0.00000000D+00
 0.00000000D+00 0.00000000D+00 0.23111243D-11 0.00000000D+00 0.00000000D+00
-0.17371176D+00 0.00000000D+00 0.00000000D+00 0.17371176D+00 0.00000000D+00
 0.28362578D-12-0.68606077D-12 0.26765202D-11-0.10725856D-09 0.00000000D+00
 0.00000000D+00 0.11050680D-12 0.00000000D+00 0.00000000D+00-0.24488877D-11
 0.00000000D+00 0.00000000D+00-0.56473701D-10-0.15010504D-01 0.15010504D-01
 0.24560228D-12 0.00000000D+00 0.00000000D+00 0.00000000D+00 0.17207274D-01
-0.17207274D-01 0.57741324D-12 0.00000000D+00 0.00000000D+00 0.00000000D+00
 0.00000000D+00 0.00000000D+00-0.41494184D-12 0.00000000D+00 0.00000000D+00
 0.21719129D-01 0.00000000D+00 0.00000000D+00-0.21719129D-01 0.00000000D+00
-0.70126190D-10 0.00000000D+00 0.00000000D+00-0.11581092D-10-0.13622363D+01
 0.13622363D+01-0.58919429D-11 0.00000000D+00 0.00000000D+00 0.00000000D+00
 0.00000000D+00 0.00000000D+00 0.23111243D-11 0.00000000D+00 0.00000000D+00
-0.17371176D+00 0.00000000D+00 0.00000000D+00 0.17371176D+00 0.00000000D+00
   28 Alpha MO OE= 0.58229144D+00
 0.00000000D+00 0.00000000D+00 0.00000000D+00 0.00000000D+00 0.00000000D+00
 0.00000000D+00 0.00000000D+00 0.00000000D+00 0.00000000D+00 0.00000000D+00
 0.00000000D+00 0.00000000D+00 0.00000000D+00 0.00000000D+00 0.00000000D+00
 0.00000000D+00 0.17332637D-01 0.00000000D+00 0.00000000D+00 0.00000000D+00
 0.00000000D+00 0.00000000D+00-0.19869248D-01 0.00000000D+00 0.00000000D+00
 0.00000000D+00 0.00000000D+00 0.00000000D+00 0.00000000D+00 0.00000000D+00
 0.00000000D+00 0.00000000D+00 0.00000000D+00 0.00000000D+00 0.25079090D-01
 0.00000000D+00 0.00000000D+00 0.00000000D+00 0.00000000D+00 0.00000000D+00
 0.00000000D+00 0.00000000D+00 0.15729749D+01 0.00000000D+00 0.00000000D+00
 0.00000000D+00 0.00000000D+00 0.00000000D+00 0.00000000D+00 0.00000000D+00
 0.00000000D+00 0.00000000D+00 0.00000000D+00 0.00000000D+00-0.20058506D+00
 0.00000000D+00 0.00000000D+00 0.00000000D+00 0.00000000D+00 0.00000000D+00
 0.00000000D+00 0.00000000D+00 0.00000000D+00 0.00000000D+00 0.00000000D+00
 0.00000000D+00 0.00000000D+00 0.00000000D+00 0.00000000D+00 0.00000000D+00
 0.00000000D+00-0.17332637D-01 0.00000000D+00 0.00000000D+00 0.00000000D+00
 0.00000000D+00 0.00000000D+00 0.19869248D-01 0.00000000D+00 0.00000000D+00
 0.00000000D+00 0.00000000D+00 0.00000000D+00 0.00000000D+00 0.00000000D+00
 0.00000000D+00 0.00000000D+00 0.00000000D+00 0.00000000D+00 0.25079090D-01
 0.00000000D+00 0.00000000D+00 0.00000000D+00 0.00000000D+00 0.00000000D+00
 0.00000000D+00 0.00000000D+00-0.15729749D+01 0.00000000D+00 0.00000000D+00
 0.00000000D+00 0.00000000D+00 0.00000000D+00 0.00000000D+00 0.00000000D+00
 0.00000000D+00 0.00000000D+00 0.00000000D+00 0.00000000D+00-0.20058506D+00
   29 Alpha MO OE= 0.59472739D+00
 0.00000000D+00 0.00000000D+00 0.00000000D+00 0.00000000D+00 0.00000000D+00
 0.89847966D-01 0.00000000D+00 0.00000000D+00 0.28106585D+00 0.00000000D+00
 0.00000000D+00-0.68250808D+00 0.00000000D+00 0.00000000D+00 0.00000000D+00
 0.00000000D+00 0.00000000D+00 0.00000000D+00 0.20095501D-01 0.00000000D+00
 0.00000000D+00 0.00000000D+00 0.00000000D+00 0.00000000D+00-0.89262846D-01
 0.00000000D+00 0.43515602D-01 0.00000000D+00 0.00000000D+00 0.19460769D-01
 0.00000000D+00 0.00000000D+00 0.43565232D-01 0.00000000D+00 0.00000000D+00
 0.00000000D+00 0.00000000D+00 0.82959324D-01 0.00000000D+00 0.00000000D+00
 0.00000000D+00 0.00000000D+00 0.00000000D+00 0.00000000D+00 0.10937801D+01
 0.00000000D+00 0.56322309D+00 0.00000000D+00 0.00000000D+00 0.25188103D+00
 0.00000000D+00 0.00000000D+00 0.51071713D-01 0.00000000D+00 0.00000000D+00
 0.00000000D+00 0.00000000D+00 0.00000000D+00 0.00000000D+00 0.00000000D+00
 0.89847966D-01 0.00000000D+00 0.00000000D+00 0.28106585D+00 0.00000000D+00
 0.00000000D+00-0.68250808D+00 0.00000000D+00 0.00000000D+00 0.00000000D+00
 0.00000000D+00 0.00000000D+00 0.00000000D+00-0.20095501D-01 0.00000000D+00
 0.00000000D+00 0.00000000D+00 0.00000000D+00 0.00000000D+00 0.89262846D-01
 0.00000000D+00 0.43515602D-01 0.00000000D+00 0.00000000D+00 0.19460769D-01
 0.00000000D+00 0.00000000D+00 0.43565232D-01 0.00000000D+00 0.00000000D+00
 0.00000000D+00 0.00000000D+00 0.82959324D-01 0.00000000D+00 0.00000000D+00
 0.00000000D+00 0.00000000D+00 0.00000000D+00 0.00000000D+00-0.10937801D+01
 0.00000000D+00 0.56322309D+00 0.00000000D+00 0.00000000D+00 0.25188103D+00
 0.00000000D+00 0.00000000D+00 0.51071713D-01 0.00000000D+00 0.00000000D+00
   30 Alpha MO OE= 0.59472739D+00
 0.00000000D+00 0.00000000D+00 0.00000000D+00 0.00000000D+00 0.89847966D-01
 0.00000000D+00 0.00000000D+00 0.28106585D+00 0.00000000D+00 0.00000000D+00
-0.68250808D+00 0.00000000D+00 0.00000000D+00 0.00000000D+00 0.00000000D+00
 0.00000000D+00 0.00000000D+00 0.20095501D-01 0.00000000D+00 0.00000000D+00
 0.00000000D+00 0.00000000D+00 0.00000000D+00-0.89262846D-01 0.00000000D+00
 0.43515602D-01 0.00000000D+00 0.00000000D+00 0.19460769D-01 0.00000000D+00
 0.00000000D+00 0.43565232D-01 0.00000000D+00 0.00000000D+00 0.00000000D+00
 0.00000000D+00 0.82959324D-01 0.00000000D+00 0.00000000D+00 0.00000000D+00
 0.00000000D+00 0.00000000D+00 0.00000000D+00 0.10937801D+01 0.00000000D+00
 0.56322309D+00 0.00000000D+00 0.00000000D+00 0.25188103D+00 0.00000000D+00
 0.00000000D+00 0.51071713D-01 0.00000000D+00 0.00000000D+00 0.00000000D+00
 0.00000000D+00 0.00000000D+00 0.00000000D+00 0.00000000D+00 0.89847966D-01
 0.00000000D+00 0.00000000D+00 0.28106585D+00 0.00000000D+00 0.00000000D+00
-0.68250808D+00 0.00000000D+00 0.00000000D+00 0.00000000D+00 0.00000000D+00
 0.00000000D+00 0.00000000D+00-0.20095501D-01 0.00000000D+00 0.00000000D+00
 0.00000000D+00 0.00000000D+00 0.00000000D+00 0.89262846D-01 0.00000000D+00
 0.43515602D-01 0.00000000D+00 0.00000000D+00 0.19460769D-01 0.00000000D+00
 0.00000000D+00 0.43565232D-01 0.00000000D+00 0.00000000D+00 0.00000000D+00
 0.00000000D+00 0.82959324D-01 0.00000000D+00 0.00000000D+00 0.00000000D+00
 0.00000000D+00 0.00000000D+00 0.00000000D+00-0.10937801D+01 0.00000000D+00
 0.56322309D+00 0.00000000D+00 0.00000000D+00 0.25188103D+00 0.00000000D+00
 0.00000000D+00 0.51071713D-01 0.00000000D+00 0.00000000D+00 0.00000000D+00
   31 Alpha MO OE= 0.60838878D+00
-0.37205239D-01 0.13534842D+00-0.32784094D+00-0.16874698D+02 0.00000000D+00
 0.00000000D+00 0.64648255D-01 0.00000000D+00 0.00000000D+00-0.23105214D+01
 0.00000000D+00 0.00000000D+00 0.12228777D+02-0.58288245D-01-0.58288245D-01
-0.21629476D-01 0.00000000D+00 0.00000000D+00 0.00000000D+00-0.69997947D+00
-0.69997947D+00 0.46406244D-01 0.00000000D+00 0.00000000D+00 0.00000000D+00
 0.00000000D+00 0.00000000D+00-0.15296580D+00 0.00000000D+00 0.00000000D+00
-0.13205774D-01 0.00000000D+00 0.00000000D+00-0.13205774D-01 0.00000000D+00
 0.38768065D+02 0.00000000D+00 0.00000000D+00-0.63273434D+01-0.61638616D+01
-0.61638616D+01-0.68536741D+01 0.00000000D+00 0.00000000D+00 0.00000000D+00
 0.00000000D+00 0.00000000D+00-0.27086529D+01 0.00000000D+00 0.00000000D+00
-0.11388442D+01 0.00000000D+00 0.00000000D+00-0.11388442D+01 0.00000000D+00
 0.37205239D-01-0.13534842D+00 0.32784094D+00 0.16874698D+02 0.00000000D+00
 0.00000000D+00 0.64648255D-01 0.00000000D+00 0.00000000D+00-0.23105214D+01
 0.00000000D+00 0.00000000D+00 0.12228777D+02 0.58288245D-01 0.58288245D-01
 0.21629476D-01 0.00000000D+00 0.00000000D+00 0.00000000D+00 0.69997947D+00
 0.69997947D+00-0.46406244D-01 0.00000000D+00 0.00000000D+00 0.00000000D+00
 0.00000000D+00 0.00000000D+00-0.15296580D+00 0.00000000D+00 0.00000000D+00
-0.13205774D-01 0.00000000D+00 0.00000000D+00-0.13205774D-01 0.00000000D+00
-0.38768065D+02 0.00000000D+00 0.00000000D+00-0.63273434D+01 0.61638616D+01
 0.61638616D+01 0.68536741D+01 0.00000000D+00 0.00000000D+00 0.00000000D+00
 0.00000000D+00 0.00000000D+00-0.27086529D+01 0.00000000D+00 0.00000000D+00
-0.11388442D+01 0.00000000D+00 0.00000000D+00-0.11388442D+01 0.00000000D+00
   32 Alpha MO OE= 0.82498492D+00
-0.30993127D-02 0.25308632D-01-0.15560344D-01 0.60424511D+01 0.00000000D+00
 0.00000000D+00-0.12391862D+00 0.00000000D+00 0.00000000D+00-0.12082609D+01
 0.00000000D+00 0.00000000D+00 0.10087299D+02-0.13441877D-01-0.13441877D-01
 0.42403803D-02 0.00000000D+00 0.00000000D+00 0.00000000D+00-0.71465457D-01
-0.71465457D-01-0.15923945D-01 0.00000000D+00 0.00000000D+00 0.00000000D+00
 0.00000000D+00 0.00000000D+00-0.14695838D+00 0.00000000D+00 0.00000000D+00
-0.34649860D-01 0.00000000D+00 0.00000000D+00-0.34649860D-01 0.00000000D+00
-0.21553577D+00 0.00000000D+00 0.00000000D+00 0.88688607D+00 0.67775859D+00
 0.67775859D+00-0.54614143D+01 0.00000000D+00 0.00000000D+00 0.00000000D+00
 0.00000000D+00 0.00000000D+00-0.17930870D+01 0.00000000D+00 0.00000000D+00
-0.98974688D+00 0.00000000D+00 0.00000000D+00-0.98974688D+00 0.00000000D+00
-0.30993127D-02 0.25308632D-01-0.15560344D-01 0.60424511D+01 0.00000000D+00
 0.00000000D+00 0.12391862D+00 0.00000000D+00 0.00000000D+00 0.12082609D+01
 0.00000000D+00 0.00000000D+00-0.10087299D+02-0.13441877D-01-0.13441877D-01
 0.42403803D-02 0.00000000D+00 0.00000000D+00 0.00000000D+00-0.71465457D-01
-0.71465457D-01-0.15923945D-01 0.00000000D+00 0.00000000D+00 0.00000000D+00
 0.00000000D+00 0.00000000D+00 0.14695838D+00 0.00000000D+00 0.00000000D+00
 0.34649860D-01 0.00000000D+00 0.00000000D+00 0.34649860D-01 0.00000000D+00
-0.21553577D+00 0.00000000D+00 0.00000000D+00-0.88688607D+00 0.67775859D+00
 0.67775859D+00-0.54614143D+01 0.00000000D+00 0.00000000D+00 0.00000000D+00
 0.00000000D+00 0.00000000D+00 0.17930870D+01 0.00000000D+00 0.00000000D+00
 0.98974688D+00 0.00000000D+00 0.00000000D+00 0.98974688D+00 0.00000000D+00
   33 Alpha MO OE= 0.82655868D+00
 0.00000000D+00 0.00000000D+00 0.00000000D+00 0.00000000D+00-0.16606944D+00
 0.00000000D+00 0.00000000D+00-0.15225027D+01 0.00000000D+00 0.00000000D+00
 0.15070456D+02 0.00000000D+00 0.00000000D+00 0.00000000D+00 0.00000000D+00
 0.00000000D+00 0.00000000D+00-0.85955377D-02 0.00000000D+00 0.00000000D+00
 0.00000000D+00 0.00000000D+00 0.00000000D+00 0.56110660D-01 0.00000000D+00
-0.12120059D+00 0.00000000D+00 0.00000000D+00-0.54202551D-01 0.00000000D+00
 0.00000000D+00-0.83782720D-01 0.00000000D+00 0.00000000D+00 0.00000000D+00
 0.00000000D+00 0.42171001D+00 0.00000000D+00 0.00000000D+00 0.00000000D+00
 0.00000000D+00 0.00000000D+00 0.00000000D+00-0.47469090D+01 0.00000000D+00
-0.25171068D+01 0.00000000D+00 0.00000000D+00-0.11256844D+01 0.00000000D+00
 0.00000000D+00-0.95754071D+00 0.00000000D+00 0.00000000D+00 0.00000000D+00
 0.00000000D+00 0.00000000D+00 0.00000000D+00 0.00000000D+00 0.16606944D+00
 0.00000000D+00 0.00000000D+00 0.15225027D+01 0.00000000D+00 0.00000000D+00
-0.15070456D+02 0.00000000D+00 0.00000000D+00 0.00000000D+00 0.00000000D+00
 0.00000000D+00 0.00000000D+00-0.85955377D-02 0.00000000D+00 0.00000000D+00
 0.00000000D+00 0.00000000D+00 0.00000000D+00 0.56110660D-01 0.00000000D+00
 0.12120059D+00 0.00000000D+00 0.00000000D+00 0.54202551D-01 0.00000000D+00
 0.00000000D+00 0.83782720D-01 0.00000000D+00 0.00000000D+00 0.00000000D+00
 0.00000000D+00-0.42171001D+00 0.00000000D+00 0.00000000D+00 0.00000000D+00
 0.00000000D+00 0.00000000D+00 0.00000000D+00-0.47469090D+01 0.00000000D+00
 0.25171068D+01 0.00000000D+00 0.00000000D+00 0.11256844D+01 0.00000000D+00
 0.00000000D+00 0.95754071D+00 0.00000000D+00 0.00000000D+00 0.00000000D+00
   34 Alpha MO OE= 0.82655868D+00
 0.00000000D+00 0.00000000D+00 0.00000000D+00 0.00000000D+00 0.00000000D+00
-0.16606944D+00 0.00000000D+00 0.00000000D+00-0.15225027D+01 0.00000000D+00
 0.00000000D+00 0.15070456D+02 0.00000000D+00 0.00000000D+00 0.00000000D+00
 0.00000000D+00 0.00000000D+00 0.00000000D+00-0.85955377D-02 0.00000000D+00
 0.00000000D+00 0.00000000D+00 0.00000000D+00 0.00000000D+00 0.56110660D-01
 0.00000000D+00-0.12120059D+00 0.00000000D+00 0.00000000D+00-0.54202551D-01
 0.00000000D+00 0.00000000D+00-0.83782720D-01 0.00000000D+00 0.00000000D+00
 0.00000000D+00 0.00000000D+00 0.42171001D+00 0.00000000D+00 0.00000000D+00
 0.00000000D+00 0.00000000D+00 0.00000000D+00 0.00000000D+00-0.47469090D+01
 0.00000000D+00-0.25171068D+01 0.00000000D+00 0.00000000D+00-0.11256844D+01
 0.00000000D+00 0.00000000D+00-0.95754071D+00 0.00000000D+00 0.00000000D+00
 0.00000000D+00 0.00000000D+00 0.00000000D+00 0.00000000D+00 0.00000000D+00
 0.16606944D+00 0.00000000D+00 0.00000000D+00 0.15225027D+01 0.00000000D+00
 0.00000000D+00-0.15070456D+02 0.00000000D+00 0.00000000D+00 0.00000000D+00
 0.00000000D+00 0.00000000D+00 0.00000000D+00-0.85955377D-02 0.00000000D+00
 0.00000000D+00 0.00000000D+00 0.00000000D+00 0.00000000D+00 0.56110660D-01
 0.00000000D+00 0.12120059D+00 0.00000000D+00 0.00000000D+00 0.54202551D-01
 0.00000000D+00 0.00000000D+00 0.83782720D-01 0.00000000D+00 0.00000000D+00
 0.00000000D+00 0.00000000D+00-0.42171001D+00 0.00000000D+00 0.00000000D+00
 0.00000000D+00 0.00000000D+00 0.00000000D+00 0.00000000D+00-0.47469090D+01
 0.00000000D+00 0.25171068D+01 0.00000000D+00 0.00000000D+00 0.11256844D+01
 0.00000000D+00 0.00000000D+00 0.95754071D+00 0.00000000D+00 0.00000000D+00
   35 Alpha MO OE= 0.83530349D+00
-0.89138925D-01 0.20781817D+00-0.29034730D+00 0.65681392D+02 0.00000000D+00
 0.00000000D+00-0.10613581D+00 0.00000000D+00 0.00000000D+00 0.46720026D+00
 0.00000000D+00 0.00000000D+00-0.35294085D+02-0.35053695D-01-0.35053695D-01
-0.50020987D-01 0.00000000D+00 0.00000000D+00 0.00000000D+00-0.68306316D+00
-0.68306316D+00 0.21298179D+00 0.00000000D+00 0.00000000D+00 0.00000000D+00
 0.00000000D+00 0.00000000D+00-0.25773491D-01 0.00000000D+00 0.00000000D+00
 0.36604349D-01 0.00000000D+00 0.00000000D+00 0.36604349D-01 0.00000000D+00
-0.52278783D+01 0.00000000D+00 0.00000000D+00 0.21452289D+00 0.29735519D+01
 0.29735519D+01 0.11004737D+02 0.00000000D+00 0.00000000D+00 0.00000000D+00
 0.00000000D+00 0.00000000D+00 0.19564888D+01 0.00000000D+00 0.00000000D+00
 0.11119601D+01 0.00000000D+00 0.00000000D+00 0.11119601D+01 0.00000000D+00
 0.89138925D-01-0.20781817D+00 0.29034730D+00-0.65681392D+02 0.00000000D+00
 0.00000000D+00-0.10613581D+00 0.00000000D+00 0.00000000D+00 0.46720026D+00
 0.00000000D+00 0.00000000D+00-0.35294085D+02 0.35053695D-01 0.35053695D-01
 0.50020987D-01 0.00000000D+00 0.00000000D+00 0.00000000D+00 0.68306316D+00
 0.68306316D+00-0.21298179D+00 0.00000000D+00 0.00000000D+00 0.00000000D+00
 0.00000000D+00 0.00000000D+00-0.25773491D-01 0.00000000D+00 0.00000000D+00
 0.36604349D-01 0.00000000D+00 0.00000000D+00 0.36604349D-01 0.00000000D+00
 0.52278783D+01 0.00000000D+00 0.00000000D+00 0.21452289D+00-0.29735519D+01
-0.29735519D+01-0.11004737D+02 0.00000000D+00 0.00000000D+00 0.00000000D+00
 0.00000000D+00 0.00000000D+00 0.19564888D+01 0.00000000D+00 0.00000000D+00
 0.11119601D+01 0.00000000D+00 0.00000000D+00 0.11119601D+01 0.00000000D+00
   36 Alpha MO OE= 0.11386541D+01
-0.28234786D-03-0.78347812D-01 0.15847948D+00 0.57154956D+02 0.00000000D+00
 0.00000000D+00 0.28515616D+00 0.00000000D+00 0.00000000D+00 0.44440567D+01
 0.00000000D+00 0.00000000D+00-0.38938908D+02 0.13604888D-01 0.13604888D-01
 0.47275414D-01 0.00000000D+00 0.00000000D+00 0.00000000D+00 0.23288126D+00
 0.23288126D+00 0.26046591D+00 0.00000000D+00 0.00000000D+00 0.00000000D+00
 0.00000000D+00 0.00000000D+00 0.17934168D+00 0.00000000D+00 0.00000000D+00
 0.62296914D-01 0.00000000D+00 0.00000000D+00 0.62296914D-01 0.00000000D+00
-0.26147569D+02 0.00000000D+00 0.00000000D+00 0.36464297D+01 0.77214741D+01
 0.77214741D+01 0.14177383D+02 0.00000000D+00 0.00000000D+00 0.00000000D+00
 0.00000000D+00 0.00000000D+00 0.57003206D+01 0.00000000D+00 0.00000000D+00
 0.26151688D+01 0.00000000D+00 0.00000000D+00 0.26151688D+01 0.00000000D+00
 0.28234786D-03 0.78347812D-01-0.15847948D+00-0.57154956D+02 0.00000000D+00
 0.00000000D+00 0.28515616D+00 0.00000000D+00 0.00000000D+00 0.44440567D+01
 0.00000000D+00 0.00000000D+00-0.38938908D+02-0.13604888D-01-0.13604888D-01
-0.47275414D-01 0.00000000D+00 0.00000000D+00 0.00000000D+00-0.23288126D+00
-0.23288126D+00-0.26046591D+00 0.00000000D+00 0.00000000D+00 0.00000000D+00
 0.00000000D+00 0.00000000D+00 0.17934168D+00 0.00000000D+00 0.00000000D+00
 0.62296914D-01 0.00000000D+00 0.00000000D+00 0.62296914D-01 0.00000000D+00
 0.26147569D+02 0.00000000D+00 0.00000000D+00 0.36464297D+01-0.77214741D+01
-0.77214741D+01-0.14177383D+02 0.00000000D+00 0.00000000D+00 0.00000000D+00
 0.00000000D+00 0.00000000D+00 0.57003206D+01 0.00000000D+00 0.00000000D+00
 0.26151688D+01 0.00000000D+00 0.00000000D+00 0.26151688D+01 0.00000000D+00
   37 Alpha MO OE= 0.12372429D+01
 0.63852467D-01-0.38082752D+00-0.12297881D+01 0.78867653D+01 0.00000000D+00
 0.00000000D+00-0.91649617D-01 0.00000000D+00 0.00000000D+00-0.27717306D+00
 0.00000000D+00 0.00000000D+00 0.52629847D+00-0.19073192D+00-0.19073192D+00
-0.11674602D+00 0.00000000D+00 0.00000000D+00 0.00000000D+00-0.15023274D+01
-0.15023274D+01-0.25279336D+01 0.00000000D+00 0.00000000D+00 0.00000000D+00
 0.00000000D+00 0.00000000D+00 0.66680618D-01 0.00000000D+00 0.00000000D+00
-0.93135248D-02 0.00000000D+00 0.00000000D+00-0.93135248D-02 0.00000000D+00
 0.17653163D+01 0.00000000D+00 0.00000000D+00-0.30325101D-01-0.17047422D+01
-0.17047422D+01-0.26454485D+01 0.00000000D+00 0.00000000D+00 0.00000000D+00
 0.00000000D+00 0.00000000D+00 0.14241548D+01 0.00000000D+00 0.00000000D+00
 0.34021397D-01 0.00000000D+00 0.00000000D+00 0.34021397D-01 0.00000000D+00
 0.63852467D-01-0.38082752D+00-0.12297881D+01 0.78867653D+01 0.00000000D+00
 0.00000000D+00 0.91649617D-01 0.00000000D+00 0.00000000D+00 0.27717306D+00
 0.00000000D+00 0.00000000D+00-0.52629847D+00-0.19073192D+00-0.19073192D+00
-0.11674602D+00 0.00000000D+00 0.00000000D+00 0.00000000D+00-0.15023274D+01
-0.15023274D+01-0.25279336D+01 0.00000000D+00 0.00000000D+00 0.00000000D+00
 0.00000000D+00 0.00000000D+00-0.66680618D-01 0.00000000D+00 0.00000000D+00
[...]
 0.00000000D+00 0.00000000D+00-0.12437997D+00 0.00000000D+00 0.00000000D+00
 0.00000000D+00 0.00000000D+00 0.00000000D+00 0.00000000D+00 0.42924919D+00
 0.00000000D+00 0.38702004D+00 0.00000000D+00 0.00000000D+00 0.17308063D+00
 0.00000000D+00 0.00000000D+00 0.16920127D+00 0.00000000D+00 0.00000000D+00
 0.00000000D+00 0.00000000D+00 0.00000000D+00 0.00000000D+00 0.00000000D+00
 0.18007987D+00 0.00000000D+00 0.00000000D+00-0.12621874D+01 0.00000000D+00
 0.00000000D+00 0.11649340D+01 0.00000000D+00 0.00000000D+00 0.00000000D+00
 0.00000000D+00 0.00000000D+00 0.00000000D+00-0.69135291D+00 0.00000000D+00
 0.00000000D+00 0.00000000D+00 0.00000000D+00 0.00000000D+00-0.12962711D+01
 0.00000000D+00 0.48886002D+00 0.00000000D+00 0.00000000D+00 0.21862485D+00
 0.00000000D+00 0.00000000D+00-0.14924399D+01 0.00000000D+00 0.00000000D+00
 0.00000000D+00 0.00000000D+00 0.12437997D+00 0.00000000D+00 0.00000000D+00
 0.00000000D+00 0.00000000D+00 0.00000000D+00 0.00000000D+00 0.42924919D+00
 0.00000000D+00-0.38702004D+00 0.00000000D+00 0.00000000D+00-0.17308063D+00
 0.00000000D+00 0.00000000D+00-0.16920127D+00 0.00000000D+00 0.00000000D+00
  100 Alpha MO OE= 0.73826881D+01
-0.10256947D+00-0.47851459D+00-0.24003375D+01 0.47510374D+02 0.00000000D+00
 0.00000000D+00 0.18086079D+00 0.00000000D+00 0.00000000D+00 0.16218548D+01
 0.00000000D+00 0.00000000D+00-0.29257028D+02-0.85477714D+00-0.85477714D+00
 0.10557228D+01 0.00000000D+00 0.00000000D+00 0.00000000D+00-0.24985178D+01
-0.24985178D+01-0.35606508D+01 0.00000000D+00 0.00000000D+00 0.00000000D+00
 0.00000000D+00 0.00000000D+00-0.61193911D-03 0.00000000D+00 0.00000000D+00
 0.61988679D+00 0.00000000D+00 0.00000000D+00 0.61988679D+00 0.00000000D+00
-0.27948806D+01 0.00000000D+00 0.00000000D+00 0.20445619D+00 0.24004795D+01
 0.24004795D+01 0.72705888D+01 0.00000000D+00 0.00000000D+00 0.00000000D+00
 0.00000000D+00 0.00000000D+00 0.63652185D+01 0.00000000D+00 0.00000000D+00
 0.25534706D+01 0.00000000D+00 0.00000000D+00 0.25534706D+01 0.00000000D+00
 0.10256947D+00 0.47851459D+00 0.24003375D+01-0.47510374D+02 0.00000000D+00
 0.00000000D+00 0.18086079D+00 0.00000000D+00 0.00000000D+00 0.16218548D+01
 0.00000000D+00 0.00000000D+00-0.29257028D+02 0.85477714D+00 0.85477714D+00
-0.10557228D+01 0.00000000D+00 0.00000000D+00 0.00000000D+00 0.24985178D+01
 0.24985178D+01 0.35606508D+01 0.00000000D+00 0.00000000D+00 0.00000000D+00
 0.00000000D+00 0.00000000D+00-0.61193911D-03 0.00000000D+00 0.00000000D+00
 0.61988679D+00 0.00000000D+00 0.00000000D+00 0.61988679D+00 0.00000000D+00
 0.27948806D+01 0.00000000D+00 0.00000000D+00 0.20445619D+00-0.24004795D+01
-0.24004795D+01-0.72705888D+01 0.00000000D+00 0.00000000D+00 0.00000000D+00
 0.00000000D+00 0.00000000D+00 0.63652185D+01 0.00000000D+00 0.00000000D+00
 0.25534706D+01 0.00000000D+00 0.00000000D+00 0.25534706D+01 0.00000000D+00
  101 Alpha MO OE= 0.96419325D+01
 0.00000000D+00 0.00000000D+00 0.00000000D+00 0.00000000D+00 0.00000000D+00
-0.21043668D+01 0.00000000D+00 0.00000000D+00 0.10725347D+02 0.00000000D+00
 0.00000000D+00 0.27722140D+01 0.00000000D+00 0.00000000D+00 0.00000000D+00
 0.00000000D+00 0.00000000D+00 0.00000000D+00-0.11106347D-01 0.00000000D+00
 0.00000000D+00 0.00000000D+00 0.00000000D+00 0.00000000D+00 0.77082606D-01
 0.00000000D+00-0.56017280D+01 0.00000000D+00 0.00000000D+00-0.25051689D+01
 0.00000000D+00 0.00000000D+00-0.23257510D+01 0.00000000D+00 0.00000000D+00
 0.00000000D+00 0.00000000D+00-0.24950019D+00 0.00000000D+00 0.00000000D+00
 0.00000000D+00 0.00000000D+00 0.00000000D+00 0.00000000D+00 0.64882148D-01
 0.00000000D+00-0.28607415D+01 0.00000000D+00 0.00000000D+00-0.12793625D+01
 0.00000000D+00 0.00000000D+00-0.16041617D+01 0.00000000D+00 0.00000000D+00
 0.00000000D+00 0.00000000D+00 0.00000000D+00 0.00000000D+00 0.00000000D+00
-0.21043668D+01 0.00000000D+00 0.00000000D+00 0.10725347D+02 0.00000000D+00
 0.00000000D+00 0.27722140D+01 0.00000000D+00 0.00000000D+00 0.00000000D+00
 0.00000000D+00 0.00000000D+00 0.00000000D+00 0.11106347D-01 0.00000000D+00
 0.00000000D+00 0.00000000D+00 0.00000000D+00 0.00000000D+00-0.77082606D-01
 0.00000000D+00-0.56017280D+01 0.00000000D+00 0.00000000D+00-0.25051689D+01
 0.00000000D+00 0.00000000D+00-0.23257510D+01 0.00000000D+00 0.00000000D+00
 0.00000000D+00 0.00000000D+00-0.24950019D+00 0.00000000D+00 0.00000000D+00
 0.00000000D+00 0.00000000D+00 0.00000000D+00 0.00000000D+00-0.64882148D-01
 0.00000000D+00-0.28607415D+01 0.00000000D+00 0.00000000D+00-0.12793625D+01
 0.00000000D+00 0.00000000D+00-0.16041617D+01 0.00000000D+00 0.00000000D+00
  102 Alpha MO OE= 0.96419325D+01
 0.00000000D+00 0.00000000D+00 0.00000000D+00 0.00000000D+00-0.21043668D+01
 0.00000000D+00 0.00000000D+00 0.10725347D+02 0.00000000D+00 0.00000000D+00
 0.27722140D+01 0.00000000D+00 0.00000000D+00 0.00000000D+00 0.00000000D+00
 0.00000000D+00 0.00000000D+00-0.11106347D-01 0.00000000D+00 0.00000000D+00
 0.00000000D+00 0.00000000D+00 0.00000000D+00 0.77082606D-01 0.00000000D+00
-0.56017280D+01 0.00000000D+00 0.00000000D+00-0.25051689D+01 0.00000000D+00
 0.00000000D+00-0.23257510D+01 0.00000000D+00 0.00000000D+00 0.00000000D+00
 0.00000000D+00-0.24950019D+00 0.00000000D+00 0.00000000D+00 0.00000000D+00
 0.00000000D+00 0.00000000D+00 0.00000000D+00 0.64882148D-01 0.00000000D+00
-0.28607415D+01 0.00000000D+00 0.00000000D+00-0.12793625D+01 0.00000000D+00
 0.00000000D+00-0.16041617D+01 0.00000000D+00 0.00000000D+00 0.00000000D+00
 0.00000000D+00 0.00000000D+00 0.00000000D+00 0.00000000D+00-0.21043668D+01
 0.00000000D+00 0.00000000D+00 0.10725347D+02 0.00000000D+00 0.00000000D+00
 0.27722140D+01 0.00000000D+00 0.00000000D+00 0.00000000D+00 0.00000000D+00
 0.00000000D+00 0.00000000D+00 0.11106347D-01 0.00000000D+00 0.00000000D+00
 0.00000000D+00 0.00000000D+00 0.00000000D+00-0.77082606D-01 0.00000000D+00
-0.56017280D+01 0.00000000D+00 0.00000000D+00-0.25051689D+01 0.00000000D+00
 0.00000000D+00-0.23257510D+01 0.00000000D+00 0.00000000D+00 0.00000000D+00
 0.00000000D+00-0.24950019D+00 0.00000000D+00 0.00000000D+00 0.00000000D+00
 0.00000000D+00 0.00000000D+00 0.00000000D+00-0.64882148D-01 0.00000000D+00
-0.28607415D+01 0.00000000D+00 0.00000000D+00-0.12793625D+01 0.00000000D+00
 0.00000000D+00-0.16041617D+01 0.00000000D+00 0.00000000D+00 0.00000000D+00
  103 Alpha MO OE= 0.10511331D+02
-0.56037165D+00-0.21358090D+01 0.92280083D+00 0.32127588D+01 0.00000000D+00
 0.00000000D+00-0.21557643D+01 0.00000000D+00 0.00000000D+00 0.98714135D+01
 0.00000000D+00 0.00000000D+00 0.61228477D+01 0.51761696D-01 0.51761696D-01
-0.26928314D+00 0.00000000D+00 0.00000000D+00 0.00000000D+00-0.31419749D+00
-0.31419749D+00 0.31049472D+00 0.00000000D+00 0.00000000D+00 0.00000000D+00
 0.00000000D+00 0.00000000D+00-0.52110330D+01 0.00000000D+00 0.00000000D+00
-0.25247264D+01 0.00000000D+00 0.00000000D+00-0.25247264D+01 0.00000000D+00
 0.14951605D+00 0.00000000D+00 0.00000000D+00-0.40474857D+00-0.21275766D+00
-0.21275766D+00-0.15385018D+01 0.00000000D+00 0.00000000D+00 0.00000000D+00
 0.00000000D+00 0.00000000D+00-0.42324888D+01 0.00000000D+00 0.00000000D+00
-0.17858433D+01 0.00000000D+00 0.00000000D+00-0.17858433D+01 0.00000000D+00
-0.56037165D+00-0.21358090D+01 0.92280083D+00 0.32127588D+01 0.00000000D+00
 0.00000000D+00 0.21557643D+01 0.00000000D+00 0.00000000D+00-0.98714135D+01
 0.00000000D+00 0.00000000D+00-0.61228477D+01 0.51761696D-01 0.51761696D-01
-0.26928314D+00 0.00000000D+00 0.00000000D+00 0.00000000D+00-0.31419749D+00
-0.31419749D+00 0.31049472D+00 0.00000000D+00 0.00000000D+00 0.00000000D+00
 0.00000000D+00 0.00000000D+00 0.52110330D+01 0.00000000D+00 0.00000000D+00
 0.25247264D+01 0.00000000D+00 0.00000000D+00 0.25247264D+01 0.00000000D+00
 0.14951605D+00 0.00000000D+00 0.00000000D+00 0.40474857D+00-0.21275766D+00
-0.21275766D+00-0.15385018D+01 0.00000000D+00 0.00000000D+00 0.00000000D+00
 0.00000000D+00 0.00000000D+00 0.42324888D+01 0.00000000D+00 0.00000000D+00
 0.17858433D+01 0.00000000D+00 0.00000000D+00 0.17858433D+01 0.00000000D+00
  104 Alpha MO OE= 0.11494139D+02
 0.00000000D+00 0.00000000D+00 0.00000000D+00 0.00000000D+00 0.00000000D+00
-0.26081837D+01 0.00000000D+00 0.00000000D+00 0.13650583D+02 0.00000000D+00
 0.00000000D+00 0.96804539D+01 0.00000000D+00 0.00000000D+00 0.00000000D+00
 0.00000000D+00 0.00000000D+00 0.00000000D+00 0.19596896D+00 0.00000000D+00
 0.00000000D+00 0.00000000D+00 0.00000000D+00 0.00000000D+00-0.24964081D+01
 0.00000000D+00-0.62523998D+01 0.00000000D+00 0.00000000D+00-0.27961582D+01
 0.00000000D+00 0.00000000D+00-0.26035455D+01 0.00000000D+00 0.00000000D+00
 0.00000000D+00 0.00000000D+00-0.73579243D-01 0.00000000D+00 0.00000000D+00
 0.00000000D+00 0.00000000D+00 0.00000000D+00 0.00000000D+00-0.22309401D+01
 0.00000000D+00-0.43509792D+01 0.00000000D+00 0.00000000D+00-0.19458170D+01
 0.00000000D+00 0.00000000D+00-0.43546611D+00 0.00000000D+00 0.00000000D+00
 0.00000000D+00 0.00000000D+00 0.00000000D+00 0.00000000D+00 0.00000000D+00
 0.26081837D+01 0.00000000D+00 0.00000000D+00-0.13650583D+02 0.00000000D+00
 0.00000000D+00-0.96804539D+01 0.00000000D+00 0.00000000D+00 0.00000000D+00
 0.00000000D+00 0.00000000D+00 0.00000000D+00 0.19596896D+00 0.00000000D+00
 0.00000000D+00 0.00000000D+00 0.00000000D+00 0.00000000D+00-0.24964081D+01
 0.00000000D+00 0.62523998D+01 0.00000000D+00 0.00000000D+00 0.27961582D+01
 0.00000000D+00 0.00000000D+00 0.26035455D+01 0.00000000D+00 0.00000000D+00
 0.00000000D+00 0.00000000D+00 0.73579243D-01 0.00000000D+00 0.00000000D+00
 0.00000000D+00 0.00000000D+00 0.00000000D+00 0.00000000D+00-0.22309401D+01
 0.00000000D+00 0.43509792D+01 0.00000000D+00 0.00000000D+00 0.19458170D+01
 0.00000000D+00 0.00000000D+00 0.43546611D+00 0.00000000D+00 0.00000000D+00
  105 Alpha MO OE= 0.11494139D+02
 0.00000000D+00 0.00000000D+00 0.00000000D+00 0.00000000D+00-0.26081837D+01
 0.00000000D+00 0.00000000D+00 0.13650583D+02 0.00000000D+00 0.00000000D+00
 0.96804539D+01 0.00000000D+00 0.00000000D+00 0.00000000D+00 0.00000000D+00
 0.00000000D+00 0.00000000D+00 0.19596896D+00 0.00000000D+00 0.00000000D+00
 0.00000000D+00 0.00000000D+00 0.00000000D+00-0.24964081D+01 0.00000000D+00
-0.62523998D+01 0.00000000D+00 0.00000000D+00-0.27961582D+01 0.00000000D+00
 0.00000000D+00-0.26035455D+01 0.00000000D+00 0.00000000D+00 0.00000000D+00
 0.00000000D+00-0.73579243D-01 0.00000000D+00 0.00000000D+00 0.00000000D+00
 0.00000000D+00 0.00000000D+00 0.00000000D+00-0.22309401D+01 0.00000000D+00
-0.43509792D+01 0.00000000D+00 0.00000000D+00-0.19458170D+01 0.00000000D+00
 0.00000000D+00-0.43546611D+00 0.00000000D+00 0.00000000D+00 0.00000000D+00
 0.00000000D+00 0.00000000D+00 0.00000000D+00 0.00000000D+00 0.26081837D+01
 0.00000000D+00 0.00000000D+00-0.13650583D+02 0.00000000D+00 0.00000000D+00
-0.96804539D+01 0.00000000D+00 0.00000000D+00 0.00000000D+00 0.00000000D+00
 0.00000000D+00 0.00000000D+00 0.19596896D+00 0.00000000D+00 0.00000000D+00
 0.00000000D+00 0.00000000D+00 0.00000000D+00-0.24964081D+01 0.00000000D+00
 0.62523998D+01 0.00000000D+00 0.00000000D+00 0.27961582D+01 0.00000000D+00
 0.00000000D+00 0.26035455D+01 0.00000000D+00 0.00000000D+00 0.00000000D+00
 0.00000000D+00 0.73579243D-01 0.00000000D+00 0.00000000D+00 0.00000000D+00
 0.00000000D+00 0.00000000D+00 0.00000000D+00-0.22309401D+01 0.00000000D+00
 0.43509792D+01 0.00000000D+00 0.00000000D+00 0.19458170D+01 0.00000000D+00
 0.00000000D+00 0.43546611D+00 0.00000000D+00 0.00000000D+00 0.00000000D+00
  106 Alpha MO OE= 0.12336908D+02
-0.26666523D+00 0.54168778D+01-0.61799421D+00 0.47618557D+01 0.00000000D+00
 0.00000000D+00 0.85714972D+00 0.00000000D+00 0.00000000D+00-0.33365031D+01
 0.00000000D+00 0.00000000D+00-0.14950862D+01-0.23815596D+01-0.23815596D+01
-0.24165966D+01 0.00000000D+00 0.00000000D+00 0.00000000D+00-0.27357168D+01
-0.27357168D+01-0.21403116D+01 0.00000000D+00 0.00000000D+00 0.00000000D+00
 0.00000000D+00 0.00000000D+00 0.15136705D+01 0.00000000D+00 0.00000000D+00
 0.91931468D+00 0.00000000D+00 0.00000000D+00 0.91931468D+00 0.00000000D+00
 0.53735840D+00 0.00000000D+00 0.00000000D+00-0.49398578D-01-0.79740016D+00
-0.79740016D+00-0.29669552D+00 0.00000000D+00 0.00000000D+00 0.00000000D+00
 0.00000000D+00 0.00000000D+00 0.70791699D+00 0.00000000D+00 0.00000000D+00
 0.46527016D+00 0.00000000D+00 0.00000000D+00 0.46527016D+00 0.00000000D+00
-0.26666523D+00 0.54168778D+01-0.61799421D+00 0.47618557D+01 0.00000000D+00
 0.00000000D+00-0.85714972D+00 0.00000000D+00 0.00000000D+00 0.33365031D+01
 0.00000000D+00 0.00000000D+00 0.14950862D+01-0.23815596D+01-0.23815596D+01
-0.24165966D+01 0.00000000D+00 0.00000000D+00 0.00000000D+00-0.27357168D+01
-0.27357168D+01-0.21403116D+01 0.00000000D+00 0.00000000D+00 0.00000000D+00
 0.00000000D+00 0.00000000D+00-0.15136705D+01 0.00000000D+00 0.00000000D+00
-0.91931468D+00 0.00000000D+00 0.00000000D+00-0.91931468D+00 0.00000000D+00
 0.53735840D+00 0.00000000D+00 0.00000000D+00 0.49398578D-01-0.79740016D+00
-0.79740016D+00-0.29669552D+00 0.00000000D+00 0.00000000D+00 0.00000000D+00
 0.00000000D+00 0.00000000D+00-0.70791699D+00 0.00000000D+00 0.00000000D+00
-0.46527016D+00 0.00000000D+00 0.00000000D+00-0.46527016D+00 0.00000000D+00
  107 Alpha MO OE= 0.12827587D+02
-0.11306401D+00 0.69167758D+01-0.17699776D+01 0.15672108D+02 0.00000000D+00
 0.00000000D+00-0.64153708D+00 0.00000000D+00 0.00000000D+00 0.23642143D+01
 0.00000000D+00 0.00000000D+00-0.20901709D+01-0.28308420D+01-0.28308420D+01
-0.26325128D+01 0.00000000D+00 0.00000000D+00 0.00000000D+00-0.43982248D+01
-0.43982248D+01-0.40034496D+01 0.00000000D+00 0.00000000D+00 0.00000000D+00
 0.00000000D+00 0.00000000D+00-0.15038249D+01 0.00000000D+00 0.00000000D+00
-0.61300642D+00 0.00000000D+00 0.00000000D+00-0.61300642D+00 0.00000000D+00
 0.79147031D+01 0.00000000D+00 0.00000000D+00-0.12137793D+01-0.22615773D+01
-0.22615773D+01-0.13599436D+01 0.00000000D+00 0.00000000D+00 0.00000000D+00
 0.00000000D+00 0.00000000D+00-0.10655038D+01 0.00000000D+00 0.00000000D+00
-0.36241466D+00 0.00000000D+00 0.00000000D+00-0.36241466D+00 0.00000000D+00
 0.11306401D+00-0.69167758D+01 0.17699776D+01-0.15672108D+02 0.00000000D+00
 0.00000000D+00-0.64153708D+00 0.00000000D+00 0.00000000D+00 0.23642143D+01
 0.00000000D+00 0.00000000D+00-0.20901709D+01 0.28308420D+01 0.28308420D+01
 0.26325128D+01 0.00000000D+00 0.00000000D+00 0.00000000D+00 0.43982248D+01
 0.43982248D+01 0.40034496D+01 0.00000000D+00 0.00000000D+00 0.00000000D+00
 0.00000000D+00 0.00000000D+00-0.15038249D+01 0.00000000D+00 0.00000000D+00
-0.61300642D+00 0.00000000D+00 0.00000000D+00-0.61300642D+00 0.00000000D+00
-0.79147031D+01 0.00000000D+00 0.00000000D+00-0.12137793D+01 0.22615773D+01
 0.22615773D+01 0.13599436D+01 0.00000000D+00 0.00000000D+00 0.00000000D+00
 0.00000000D+00 0.00000000D+00-0.10655038D+01 0.00000000D+00 0.00000000D+00
-0.36241466D+00 0.00000000D+00 0.00000000D+00-0.36241466D+00 0.00000000D+00
  108 Alpha MO OE= 0.13763679D+02
-0.23345358D+00 0.90110574D-01 0.64835284D+00 0.42179000D+02 0.00000000D+00
 0.00000000D+00 0.29405345D+01 0.00000000D+00 0.00000000D+00-0.10618713D+02
 0.00000000D+00 0.00000000D+00-0.31834447D+02-0.18883575D+00-0.18883575D+00
-0.11486170D+01 0.00000000D+00 0.00000000D+00 0.00000000D+00-0.34491062D+00
-0.34491062D+00 0.13603388D+00 0.00000000D+00 0.00000000D+00 0.00000000D+00
 0.00000000D+00 0.00000000D+00 0.73058408D+01 0.00000000D+00 0.00000000D+00
 0.27566461D+01 0.00000000D+00 0.00000000D+00 0.27566461D+01 0.00000000D+00
-0.78566828D+01 0.00000000D+00 0.00000000D+00 0.93992754D+00 0.41081233D+01
 0.41081233D+01 0.92125365D+01 0.00000000D+00 0.00000000D+00 0.00000000D+00
 0.00000000D+00 0.00000000D+00 0.79896073D+01 0.00000000D+00 0.00000000D+00
 0.39878721D+01 0.00000000D+00 0.00000000D+00 0.39878721D+01 0.00000000D+00
 0.23345358D+00-0.90110574D-01-0.64835284D+00-0.42179000D+02 0.00000000D+00
 0.00000000D+00 0.29405345D+01 0.00000000D+00 0.00000000D+00-0.10618713D+02
 0.00000000D+00 0.00000000D+00-0.31834447D+02 0.18883575D+00 0.18883575D+00
 0.11486170D+01 0.00000000D+00 0.00000000D+00 0.00000000D+00 0.34491062D+00
 0.34491062D+00-0.13603388D+00 0.00000000D+00 0.00000000D+00 0.00000000D+00
 0.00000000D+00 0.00000000D+00 0.73058408D+01 0.00000000D+00 0.00000000D+00
 0.27566461D+01 0.00000000D+00 0.00000000D+00 0.27566461D+01 0.00000000D+00
 0.78566828D+01 0.00000000D+00 0.00000000D+00 0.93992754D+00-0.41081233D+01
-0.41081233D+01-0.92125365D+01 0.00000000D+00 0.00000000D+00 0.00000000D+00
 0.00000000D+00 0.00000000D+00 0.79896073D+01 0.00000000D+00 0.00000000D+00
 0.39878721D+01 0.00000000D+00 0.00000000D+00 0.39878721D+01 0.00000000D+00
  109 Alpha MO OE= 0.15495844D+02
 0.13866424D+01 0.12280745D+02-0.18439658D+01 0.44521326D+01 0.00000000D+00
 0.00000000D+00-0.12427071D+01 0.00000000D+00 0.00000000D+00 0.48946265D+01
 0.00000000D+00 0.00000000D+00 0.34821606D+01-0.21691473D+01-0.21691473D+01
-0.14916999D+01 0.00000000D+00 0.00000000D+00 0.00000000D+00-0.19162905D+01
-0.19162905D+01-0.63333347D+01 0.00000000D+00 0.00000000D+00 0.00000000D+00
 0.00000000D+00 0.00000000D+00-0.23715725D+01 0.00000000D+00 0.00000000D+00
-0.13827282D+01 0.00000000D+00 0.00000000D+00-0.13827282D+01 0.00000000D+00
-0.15542463D+00 0.00000000D+00 0.00000000D+00 0.63196616D+00 0.25455256D+00
 0.25455256D+00-0.24193863D+01 0.00000000D+00 0.00000000D+00 0.00000000D+00
 0.00000000D+00 0.00000000D+00 0.16686099D+01 0.00000000D+00 0.00000000D+00
-0.85296513D+00 0.00000000D+00 0.00000000D+00-0.85296513D+00 0.00000000D+00
 0.13866424D+01 0.12280745D+02-0.18439658D+01 0.44521326D+01 0.00000000D+00
 0.00000000D+00 0.12427071D+01 0.00000000D+00 0.00000000D+00-0.48946265D+01
 0.00000000D+00 0.00000000D+00-0.34821606D+01-0.21691473D+01-0.21691473D+01
-0.14916999D+01 0.00000000D+00 0.00000000D+00 0.00000000D+00-0.19162905D+01
-0.19162905D+01-0.63333347D+01 0.00000000D+00 0.00000000D+00 0.00000000D+00
 0.00000000D+00 0.00000000D+00 0.23715725D+01 0.00000000D+00 0.00000000D+00
 0.13827282D+01 0.00000000D+00 0.00000000D+00 0.13827282D+01 0.00000000D+00
-0.15542463D+00 0.00000000D+00 0.00000000D+00-0.63196616D+00 0.25455256D+00
 0.25455256D+00-0.24193863D+01 0.00000000D+00 0.00000000D+00 0.00000000D+00
 0.00000000D+00 0.00000000D+00-0.16686099D+01 0.00000000D+00 0.00000000D+00
 0.85296513D+00 0.00000000D+00 0.00000000D+00 0.85296513D+00 0.00000000D+00
  110 Alpha MO OE= 0.36823504D+02
-0.24266620D+01-0.19877279D+02-0.10873806D+01 0.28581637D+02 0.00000000D+00
 0.00000000D+00-0.11310532D+01 0.00000000D+00 0.00000000D+00 0.20178987D+02
 0.00000000D+00 0.00000000D+00-0.24838328D+02 0.20393529D+01 0.20393529D+01
 0.14357136D+01 0.00000000D+00 0.00000000D+00 0.00000000D+00 0.10807149D+01
 0.10807149D+01-0.92383880D+01 0.00000000D+00 0.00000000D+00 0.00000000D+00
 0.00000000D+00 0.00000000D+00-0.27184662D+00 0.00000000D+00 0.00000000D+00
-0.93507782D+00 0.00000000D+00 0.00000000D+00-0.93507782D+00 0.00000000D+00
-0.92561619D+01 0.00000000D+00 0.00000000D+00 0.12265341D+01 0.41914433D+01
 0.41914433D+01 0.76169000D+01 0.00000000D+00 0.00000000D+00 0.00000000D+00
 0.00000000D+00 0.00000000D+00 0.91184828D+01 0.00000000D+00 0.00000000D+00
 0.29069626D+01 0.00000000D+00 0.00000000D+00 0.29069626D+01 0.00000000D+00
 0.24266620D+01 0.19877279D+02 0.10873806D+01-0.28581637D+02 0.00000000D+00
 0.00000000D+00-0.11310532D+01 0.00000000D+00 0.00000000D+00 0.20178987D+02
 0.00000000D+00 0.00000000D+00-0.24838328D+02-0.20393529D+01-0.20393529D+01
-0.14357136D+01 0.00000000D+00 0.00000000D+00 0.00000000D+00-0.10807149D+01
-0.10807149D+01 0.92383880D+01 0.00000000D+00 0.00000000D+00 0.00000000D+00
 0.00000000D+00 0.00000000D+00-0.27184662D+00 0.00000000D+00 0.00000000D+00
-0.93507782D+00 0.00000000D+00 0.00000000D+00-0.93507782D+00 0.00000000D+00
 0.92561619D+01 0.00000000D+00 0.00000000D+00 0.12265341D+01-0.41914433D+01
-0.41914433D+01-0.76169000D+01 0.00000000D+00 0.00000000D+00 0.00000000D+00
 0.00000000D+00 0.00000000D+00 0.91184828D+01 0.00000000D+00 0.00000000D+00
 0.29069626D+01 0.00000000D+00 0.00000000D+00 0.29069626D+01 0.00000000D+00
Tue Jul 31 16:27:54 CDT 2012
