Warning: no access to tty (Bad file number).
Thus no job control in this shell.
 Entering Gaussian System, Link 0=g03
 Initial command:
 /usr/local/g03/g03/l1.exe /work/48291.titan/Gau-464535.inp -scrdir=/work/48291.titan/
 Entering Link 1 = /usr/local/g03/g03/l1.exe PID=    464506.
  
 Copyright (c) 1988,1990,1992,1993,1995,1998,2003,2004, Gaussian, Inc.
                  All Rights Reserved.
  
 This is the Gaussian(R) 03 program.  It is based on the
 the Gaussian(R) 98 system (copyright 1998, Gaussian, Inc.),
 the Gaussian(R) 94 system (copyright 1995, Gaussian, Inc.),
 the Gaussian 92(TM) system (copyright 1992, Gaussian, Inc.),
 the Gaussian 90(TM) system (copyright 1990, Gaussian, Inc.),
 the Gaussian 88(TM) system (copyright 1988, Gaussian, Inc.),
 the Gaussian 86(TM) system (copyright 1986, Carnegie Mellon
 University), and the Gaussian 82(TM) system (copyright 1983,
 Carnegie Mellon University). Gaussian is a federally registered
 trademark of Gaussian, Inc.
  
 This software contains proprietary and confidential information,
 including trade secrets, belonging to Gaussian, Inc.
  
 This software is provided under written license and may be
 used, copied, transmitted, or stored only in accord with that
 written license.
  
 The following legend is applicable only to US Government
 contracts under FAR:
  
                    RESTRICTED RIGHTS LEGEND
  
 Use, reproduction and disclosure by the US Government is
 subject to restrictions as set forth in subparagraphs (a)
 and (c) of the Commercial Computer Software - Restricted
 Rights clause in FAR 52.227-19.
  
 Gaussian, Inc.
 340 Quinnipiac St., Bldg. 40, Wallingford CT 06492
  
  
 ---------------------------------------------------------------
 Warning -- This program may not be used in any manner that
 competes with the business of Gaussian, Inc. or will provide
 assistance to any competitor of Gaussian, Inc.  The licensee
 of this program is prohibited from giving any competitor of
 Gaussian, Inc. access to this program.  By using this program,
 the user acknowledges that Gaussian, Inc. is engaged in the
 business of creating and licensing software in the field of
 computational chemistry and represents and warrants to the
 licensee that it is not a competitor of Gaussian, Inc. and that
 it will not use this program in any manner prohibited above.
 ---------------------------------------------------------------
  

 Cite this work as:
 Gaussian 03, Revision C.02,
 M. J. Frisch, G. W. Trucks, H. B. Schlegel, G. E. Scuseria, 
 M. A. Robb, J. R. Cheeseman, J. A. Montgomery, Jr., T. Vreven, 
 K. N. Kudin, J. C. Burant, J. M. Millam, S. S. Iyengar, J. Tomasi, 
 V. Barone, B. Mennucci, M. Cossi, G. Scalmani, N. Rega, 
 G. A. Petersson, H. Nakatsuji, M. Hada, M. Ehara, K. Toyota, 
 R. Fukuda, J. Hasegawa, M. Ishida, T. Nakajima, Y. Honda, O. Kitao, 
 H. Nakai, M. Klene, X. Li, J. E. Knox, H. P. Hratchian, J. B. Cross, 
 C. Adamo, J. Jaramillo, R. Gomperts, R. E. Stratmann, O. Yazyev, 
 A. J. Austin, R. Cammi, C. Pomelli, J. W. Ochterski, P. Y. Ayala, 
 K. Morokuma, G. A. Voth, P. Salvador, J. J. Dannenberg, 
 V. G. Zakrzewski, S. Dapprich, A. D. Daniels, M. C. Strain, 
 O. Farkas, D. K. Malick, A. D. Rabuck, K. Raghavachari, 
 J. B. Foresman, J. V. Ortiz, Q. Cui, A. G. Baboul, S. Clifford, 
 J. Cioslowski, B. B. Stefanov, G. Liu, A. Liashenko, P. Piskorz, 
 I. Komaromi, R. L. Martin, D. J. Fox, T. Keith, M. A. Al-Laham, 
 C. Y. Peng, A. Nanayakkara, M. Challacombe, P. M. W. Gill, 
 B. Johnson, W. Chen, M. W. Wong, C. Gonzalez, and J. A. Pople, 
 Gaussian, Inc., Wallingford CT, 2004.
 
 ******************************************
 Gaussian 03:  SGI64-G03RevC.02 12-Jun-2004
                27-Feb-2006 
 ******************************************
 --------------------------------------------------
 # HF/aug-cc-pVQZ SCF=tight 6D 10F Gfinput PUNCH=MO
 --------------------------------------------------
 1/38=1/1;
 2/17=6,18=5,40=1/2;
 3/5=16,6=2,7=10,8=22,11=9,16=1,24=10,25=1,30=1/1,2,3;
 4//1;
 5/5=2,32=2,38=5/2;
 6/7=2,8=2,9=2,10=2,28=1/1;
 99/5=1,9=1,10=32/99;
 ---------------------
 CH4, very large basis
 ---------------------
 Symbolic Z-matrix:
 Charge =  0 Multiplicity = 1
 C
 H                    1    R
 H                    1    R        2    T
 H                    1    R        2    T        3    T        1
 H                    1    R        2    T        3    T        -1
       Variables:
  R                     1.08335                  
  T                   109.47122                  
 
     5 tetrahedral angles replaced.
    5 tetrahedral angles replaced.
                          Input orientation:                          
 ---------------------------------------------------------------------
 Center     Atomic     Atomic              Coordinates (Angstroms)
 Number     Number      Type              X           Y           Z
 ---------------------------------------------------------------------
    1          6             0        0.000000    0.000000    0.000000
    2          1             0        0.000000    0.000000    1.083346
    3          1             0        1.021388    0.000000   -0.361115
    4          1             0       -0.510694    0.884548   -0.361115
    5          1             0       -0.510694   -0.884548   -0.361115
 ---------------------------------------------------------------------
                    Distance matrix (angstroms):
                    1          2          3          4          5
     1  C    0.000000
     2  H    1.083346   0.000000
     3  H    1.083346   1.769097   0.000000
     4  H    1.083346   1.769097   1.769097   0.000000
     5  H    1.083346   1.769097   1.769097   1.769097   0.000000
 Stoichiometry    CH4
 Framework group  TD[O(C),4C3(H)]
 Deg. of freedom     1
 Full point group                 TD      NOp  24
 Largest Abelian subgroup         D2      NOp   4
 Largest concise Abelian subgroup D2      NOp   4
                         Standard orientation:                         
 ---------------------------------------------------------------------
 Center     Atomic     Atomic              Coordinates (Angstroms)
 Number     Number      Type              X           Y           Z
 ---------------------------------------------------------------------
    1          6             0        0.000000    0.000000    0.000000
    2          1             0        0.625470    0.625470    0.625470
    3          1             0       -0.625470   -0.625470    0.625470
    4          1             0        0.625470   -0.625470   -0.625470
    5          1             0       -0.625470    0.625470   -0.625470
 ---------------------------------------------------------------------
 Rotational constants (GHZ):    160.2245103    160.2245103    160.2245103
 Standard basis: Aug-CC-pVQZ (6D, 10F)
 AO basis set in the form of general basis input:
  1 0
 S   9 1.00       0.000000000000
      0.3398000000D+05  0.9163454570D-04
      0.5089000000D+04  0.7089090129D-03
      0.1157000000D+04  0.3718751399D-02
      0.3266000000D+03  0.1546710574D-01
      0.1061000000D+03  0.5329807549D-01
      0.3811000000D+02  0.1480683352D+00
      0.1475000000D+02  0.3077621740D+00
      0.6035000000D+01  0.4021296445D+00
      0.2530000000D+01  0.2185645031D+00
 S   9 1.00       0.000000000000
      0.3398000000D+05 -0.5571036021D-04
      0.5089000000D+04 -0.4427507575D-03
      0.1157000000D+04 -0.2301717514D-02
      0.3266000000D+03 -0.9746380913D-02
      0.1061000000D+03 -0.3375461404D-01
      0.3811000000D+02 -0.1001613634D+00
      0.1475000000D+02 -0.2262808226D+00
      0.6035000000D+01 -0.4148750525D+00
      0.2530000000D+01 -0.3460463685D+00
 S   1 1.00       0.000000000000
      0.7355000000D+00  0.1000000000D+01
 S   1 1.00       0.000000000000
      0.2905000000D+00  0.1000000000D+01
 S   1 1.00       0.000000000000
      0.1111000000D+00  0.1000000000D+01
 P   3 1.00       0.000000000000
      0.3451000000D+02  0.3168785521D-01
      0.7915000000D+01  0.2128943073D+00
      0.2368000000D+01  0.8395867520D+00
 P   1 1.00       0.000000000000
      0.8132000000D+00  0.1000000000D+01
 P   1 1.00       0.000000000000
      0.2890000000D+00  0.1000000000D+01
 P   1 1.00       0.000000000000
      0.1007000000D+00  0.1000000000D+01
 D   1 1.00       0.000000000000
      0.1848000000D+01  0.1000000000D+01
 D   1 1.00       0.000000000000
      0.6490000000D+00  0.1000000000D+01
 D   1 1.00       0.000000000000
      0.2280000000D+00  0.1000000000D+01
 F   1 1.00       0.000000000000
      0.1419000000D+01  0.1000000000D+01
 F   1 1.00       0.000000000000
      0.4850000000D+00  0.1000000000D+01
 G   1 1.00       0.000000000000
      0.1011000000D+01  0.1000000000D+01
 S   1 1.00       0.000000000000
      0.4145000000D-01  0.1000000000D+01
 P   1 1.00       0.000000000000
      0.3218000000D-01  0.1000000000D+01
 D   1 1.00       0.000000000000
      0.7660000000D-01  0.1000000000D+01
 F   1 1.00       0.000000000000
      0.1870000000D+00  0.1000000000D+01
 G   1 1.00       0.000000000000
      0.4240000000D+00  0.1000000000D+01
 ****
  2 0
 S   3 1.00       0.000000000000
      0.8264000000D+02  0.2295075779D-01
      0.1241000000D+02  0.1755401181D+00
      0.2824000000D+01  0.8647035510D+00
 S   1 1.00       0.000000000000
      0.7977000000D+00  0.1000000000D+01
 S   1 1.00       0.000000000000
      0.2581000000D+00  0.1000000000D+01
 S   1 1.00       0.000000000000
      0.8989000000D-01  0.1000000000D+01
 P   1 1.00       0.000000000000
      0.2292000000D+01  0.1000000000D+01
 P   1 1.00       0.000000000000
      0.8380000000D+00  0.1000000000D+01
 P   1 1.00       0.000000000000
      0.2920000000D+00  0.1000000000D+01
 D   1 1.00       0.000000000000
      0.2062000000D+01  0.1000000000D+01
 D   1 1.00       0.000000000000
      0.6620000000D+00  0.1000000000D+01
 F   1 1.00       0.000000000000
      0.1397000000D+01  0.1000000000D+01
 S   1 1.00       0.000000000000
      0.2363000000D-01  0.1000000000D+01
 P   1 1.00       0.000000000000
      0.8480000000D-01  0.1000000000D+01
 D   1 1.00       0.000000000000
      0.1900000000D+00  0.1000000000D+01
 F   1 1.00       0.000000000000
      0.3600000000D+00  0.1000000000D+01
 ****
  3 0
 S   3 1.00       0.000000000000
      0.8264000000D+02  0.2295075779D-01
      0.1241000000D+02  0.1755401181D+00
      0.2824000000D+01  0.8647035510D+00
 S   1 1.00       0.000000000000
      0.7977000000D+00  0.1000000000D+01
 S   1 1.00       0.000000000000
      0.2581000000D+00  0.1000000000D+01
 S   1 1.00       0.000000000000
      0.8989000000D-01  0.1000000000D+01
 P   1 1.00       0.000000000000
      0.2292000000D+01  0.1000000000D+01
 P   1 1.00       0.000000000000
      0.8380000000D+00  0.1000000000D+01
 P   1 1.00       0.000000000000
      0.2920000000D+00  0.1000000000D+01
 D   1 1.00       0.000000000000
      0.2062000000D+01  0.1000000000D+01
 D   1 1.00       0.000000000000
      0.6620000000D+00  0.1000000000D+01
 F   1 1.00       0.000000000000
      0.1397000000D+01  0.1000000000D+01
 S   1 1.00       0.000000000000
      0.2363000000D-01  0.1000000000D+01
 P   1 1.00       0.000000000000
      0.8480000000D-01  0.1000000000D+01
 D   1 1.00       0.000000000000
      0.1900000000D+00  0.1000000000D+01
 F   1 1.00       0.000000000000
      0.3600000000D+00  0.1000000000D+01
 ****
  4 0
 S   3 1.00       0.000000000000
      0.8264000000D+02  0.2295075779D-01
      0.1241000000D+02  0.1755401181D+00
      0.2824000000D+01  0.8647035510D+00
 S   1 1.00       0.000000000000
      0.7977000000D+00  0.1000000000D+01
 S   1 1.00       0.000000000000
      0.2581000000D+00  0.1000000000D+01
 S   1 1.00       0.000000000000
      0.8989000000D-01  0.1000000000D+01
 P   1 1.00       0.000000000000
      0.2292000000D+01  0.1000000000D+01
 P   1 1.00       0.000000000000
      0.8380000000D+00  0.1000000000D+01
 P   1 1.00       0.000000000000
      0.2920000000D+00  0.1000000000D+01
 D   1 1.00       0.000000000000
      0.2062000000D+01  0.1000000000D+01
 D   1 1.00       0.000000000000
      0.6620000000D+00  0.1000000000D+01
 F   1 1.00       0.000000000000
      0.1397000000D+01  0.1000000000D+01
 S   1 1.00       0.000000000000
      0.2363000000D-01  0.1000000000D+01
 P   1 1.00       0.000000000000
      0.8480000000D-01  0.1000000000D+01
 D   1 1.00       0.000000000000
      0.1900000000D+00  0.1000000000D+01
 F   1 1.00       0.000000000000
      0.3600000000D+00  0.1000000000D+01
 ****
  5 0
 S   3 1.00       0.000000000000
      0.8264000000D+02  0.2295075779D-01
      0.1241000000D+02  0.1755401181D+00
      0.2824000000D+01  0.8647035510D+00
 S   1 1.00       0.000000000000
      0.7977000000D+00  0.1000000000D+01
 S   1 1.00       0.000000000000
      0.2581000000D+00  0.1000000000D+01
 S   1 1.00       0.000000000000
      0.8989000000D-01  0.1000000000D+01
 P   1 1.00       0.000000000000
      0.2292000000D+01  0.1000000000D+01
 P   1 1.00       0.000000000000
      0.8380000000D+00  0.1000000000D+01
 P   1 1.00       0.000000000000
      0.2920000000D+00  0.1000000000D+01
 D   1 1.00       0.000000000000
      0.2062000000D+01  0.1000000000D+01
 D   1 1.00       0.000000000000
      0.6620000000D+00  0.1000000000D+01
 F   1 1.00       0.000000000000
      0.1397000000D+01  0.1000000000D+01
 S   1 1.00       0.000000000000
      0.2363000000D-01  0.1000000000D+01
 P   1 1.00       0.000000000000
      0.8480000000D-01  0.1000000000D+01
 D   1 1.00       0.000000000000
      0.1900000000D+00  0.1000000000D+01
 F   1 1.00       0.000000000000
      0.3600000000D+00  0.1000000000D+01
 ****

 There are    88 symmetry adapted basis functions of A   symmetry.
 There are    79 symmetry adapted basis functions of B1  symmetry.
 There are    79 symmetry adapted basis functions of B2  symmetry.
 There are    79 symmetry adapted basis functions of B3  symmetry.
 Integral buffers will be    131072 words long.
 Raffenetti 1 integral format.
 Two-electron integral symmetry is turned on.
   325 basis functions,   355 primitive gaussians,   325 cartesian basis functions
     5 alpha electrons        5 beta electrons
       nuclear repulsion energy        13.5179104506 Hartrees.
 NAtoms=    5 NActive=    5 NUniq=    2 SFac= 5.66D+00 NAtFMM=   60 Big=F
 One-electron integrals computed using PRISM.
 NBasis=   325 RedAO= T  NBF=    88    79    79    79
 NBsUse=   325 1.00D-06 NBFU=    88    79    79    79
 Harris functional with IExCor=  205 diagonalized for initial guess.
 ExpMin= 2.36D-02 ExpMax= 3.40D+04 ExpMxC= 3.27D+02 IAcc=3 IRadAn=         5 AccDes= 0.00D+00
 HarFok:  IExCor= 205 AccDes= 0.00D+00 IRadAn=         5 IDoV=1
 ScaDFX=  1.000000  1.000000  1.000000  1.000000
 Initial guess orbital symmetries:
       Occupied  (A1) (A1) (T2) (T2) (T2)
       Virtual   (A1) (T2) (T2) (T2) (T2) (T2) (T2) (A1) (T2) (T2)
                 (T2) (E) (E) (A1) (T2) (T2) (T2) (A1) (T2) (T2)
                 (T2) (T1) (T1) (T1) (T2) (T2) (T2) (E) (E) (A1)
                 (T2) (T2) (T2) (E) (E) (T2) (T2) (T2) (A1) (A1)
                 (T1) (T1) (T1) (T2) (T2) (T2) (T2) (T2) (T2) (T1)
                 (T1) (T1) (A1) (T2) (T2) (T2) (E) (E) (E) (E)
                 (T2) (T2) (T2) (T2) (T2) (T2) (A1) (T1) (T1) (T1)
                 (T2) (T2) (T2) (A1) (T2) (T2) (T2) (T1) (T1) (T1)
                 (E) (E) (A1) (T2) (T2) (T2) (A1) (T2) (T2) (T2)
                 (E) (E) (T2) (T2) (T2) (T1) (T1) (T1) (T2) (T2)
                 (T2) (E) (E) (T2) (T2) (T2) (T1) (T1) (T1) (A1)
                 (T1) (T1) (T1) (T2) (T2) (T2) (A1) (A2) (T2) (T2)
                 (T2) (T2) (T2) (T2) (A1) (T1) (T1) (T1) (E) (E)
                 (A1) (T2) (T2) (T2) (A1) (T1) (T1) (T1) (E) (E)
                 (T2) (T2) (T2) (E) (E) (T2) (T2) (T2) (E) (E)
                 (T2) (T2) (T2) (T2) (T2) (T2) (T2) (T2) (T2) (T1)
                 (T1) (T1) (A1) (T1) (T1) (T1) (T2) (T2) (T2) (A1)
                 (A1) (T2) (T2) (T2) (E) (E) (A1) (T2) (T2) (T2)
                 (T1) (T1) (T1) (E) (E) (T2) (T2) (T2) (T1) (T1)
                 (T1) (E) (E) (T2) (T2) (T2) (T2) (T2) (T2) (A1)
                 (T2) (T2) (T2) (A1) (E) (E) (A1) (T2) (T2) (T2)
                 (T1) (T1) (T1) (A2) (T1) (T1) (T1) (T1) (T1) (T1)
                 (T2) (T2) (T2) (T2) (T2) (T2) (A1) (T2) (T2) (T2)
                 (E) (E) (T1) (T1) (T1) (A1) (T2) (T2) (T2) (A1)
                 (T2) (T2) (T2) (E) (E) (E) (E) (T1) (T1) (T1)
                 (T2) (T2) (T2) (T2) (T2) (T2) (E) (E) (T1) (T1)
                 (T1) (T2) (T2) (T2) (A1) (E) (E) (T1) (T1) (T1)
                 (T2) (T2) (T2) (T2) (T2) (T2) (A1) (E) (E) (T2)
                 (T2) (T2) (T2) (T2) (T2) (A1) (T1) (T1) (T1) (E)
                 (E) (A1) (T2) (T2) (T2) (T2) (T2) (T2) (A1) (T1)
                 (T1) (T1) (E) (E) (T2) (T2) (T2) (T2) (T2) (T2)
                 (A1) (T2) (T2) (T2) (A1) (T2) (T2) (T2) (A1) (A1)
 The electronic state of the initial guess is 1-A1.
 Requested convergence on RMS density matrix=1.00D-08 within 128 cycles.
 Requested convergence on MAX density matrix=1.00D-06.
 Requested convergence on             energy=1.00D-06.
 No special actions if energy rises.
 SCF Done:  E(RHF) =  -40.2164948089     A.U. after    8 cycles
             Convg  =    0.7343D-08             -V/T =  2.0003
             S**2   =   0.0000

 **********************************************************************

            Population analysis using the SCF density.

 **********************************************************************

 Orbital symmetries:
       Occupied  (A1) (A1) (T2) (T2) (T2)
       Virtual   (A1) (T2) (T2) (T2) (T2) (T2) (T2) (A1) (T2) (T2)
                 (T2) (E) (E) (A1) (T2) (T2) (T2) (A1) (T1) (T1)
                 (T1) (T2) (T2) (T2) (T2) (T2) (T2) (E) (E) (T2)
                 (T2) (T2) (A1) (E) (E) (A1) (T2) (T2) (T2) (A1)
                 (T1) (T1) (T1) (T2) (T2) (T2) (T2) (T2) (T2) (T1)
                 (T1) (T1) (T2) (T2) (T2) (A1) (E) (E) (E) (E)
                 (T2) (T2) (T2) (A1) (T2) (T2) (T2) (T1) (T1) (T1)
                 (T2) (T2) (T2) (A1) (T2) (T2) (T2) (T1) (T1) (T1)
                 (A1) (E) (E) (T2) (T2) (T2) (A1) (T2) (T2) (T2)
                 (E) (E) (T2) (T2) (T2) (T1) (T1) (T1) (T2) (T2)
                 (T2) (E) (E) (T2) (T2) (T2) (T1) (T1) (T1) (A1)
                 (T1) (T1) (T1) (A2) (A1) (T2) (T2) (T2) (T2) (T2)
                 (T2) (T2) (T2) (T2) (A1) (T1) (T1) (T1) (E) (E)
                 (A1) (T2) (T2) (T2) (A1) (T1) (T1) (T1) (E) (E)
                 (T2) (T2) (T2) (E) (E) (T2) (T2) (T2) (E) (E)
                 (T2) (T2) (T2) (T2) (T2) (T2) (A1) (T2) (T2) (T2)
                 (T1) (T1) (T1) (T1) (T1) (T1) (T2) (T2) (T2) (A1)
                 (A1) (T2) (T2) (T2) (E) (E) (A1) (T2) (T2) (T2)
                 (T1) (T1) (T1) (E) (E) (T2) (T2) (T2) (T2) (T2)
                 (T2) (T1) (T1) (T1) (E) (E) (T2) (T2) (T2) (A1)
                 (T2) (T2) (T2) (A1) (E) (E) (A1) (T2) (T2) (T2)
                 (A2) (T1) (T1) (T1) (T1) (T1) (T1) (T1) (T1) (T1)
                 (T2) (T2) (T2) (T2) (T2) (T2) (A1) (T2) (T2) (T2)
                 (T1) (T1) (T1) (E) (E) (A1) (T2) (T2) (T2) (A1)
                 (E) (E) (T2) (T2) (T2) (E) (E) (T1) (T1) (T1)
                 (T2) (T2) (T2) (T2) (T2) (T2) (E) (E) (T1) (T1)
                 (T1) (A1) (T2) (T2) (T2) (E) (E) (T1) (T1) (T1)
                 (T2) (T2) (T2) (T2) (T2) (T2) (A1) (E) (E) (T2)
                 (T2) (T2) (T2) (T2) (T2) (A1) (T1) (T1) (T1) (E)
                 (E) (A1) (T2) (T2) (T2) (T2) (T2) (T2) (A1) (T1)
                 (T1) (T1) (E) (E) (T2) (T2) (T2) (T2) (T2) (T2)
                 (A1) (T2) (T2) (T2) (A1) (T2) (T2) (T2) (A1) (A1)
 The electronic state is 1-A1.
 Alpha  occ. eigenvalues --  -11.20304  -0.94502  -0.54641  -0.54641  -0.54641
 Alpha virt. eigenvalues --    0.02422   0.04397   0.04397   0.04397   0.10271
 Alpha virt. eigenvalues --    0.10271   0.10271   0.10375   0.17640   0.17640
 Alpha virt. eigenvalues --    0.17640   0.20204   0.20204   0.23521   0.26393
 Alpha virt. eigenvalues --    0.26393   0.26393   0.27118   0.27785   0.27785
 Alpha virt. eigenvalues --    0.27785   0.28566   0.28566   0.28566   0.35722
 Alpha virt. eigenvalues --    0.35722   0.35722   0.38642   0.38642   0.43098
 Alpha virt. eigenvalues --    0.43098   0.43098   0.44936   0.53653   0.53653
 Alpha virt. eigenvalues --    0.58975   0.59889   0.59889   0.59889   0.63029
 Alpha virt. eigenvalues --    0.67176   0.67176   0.67176   0.68169   0.68169
 Alpha virt. eigenvalues --    0.68169   0.71714   0.71714   0.71714   0.78727
 Alpha virt. eigenvalues --    0.78727   0.78727   0.85136   0.85136   0.85136
 Alpha virt. eigenvalues --    0.85693   0.87879   0.87879   0.92214   0.92214
 Alpha virt. eigenvalues --    0.92880   0.92880   0.92880   1.05185   1.06273
 Alpha virt. eigenvalues --    1.06273   1.06273   1.06748   1.06748   1.06748
 Alpha virt. eigenvalues --    1.12295   1.12295   1.12295   1.16305   1.29869
 Alpha virt. eigenvalues --    1.29869   1.29869   1.31138   1.31138   1.31138
 Alpha virt. eigenvalues --    1.37150   1.37989   1.37989   1.46775   1.46775
 Alpha virt. eigenvalues --    1.46775   1.56369   1.61544   1.61544   1.61544
 Alpha virt. eigenvalues --    1.67869   1.67869   1.78734   1.78734   1.78734
 Alpha virt. eigenvalues --    1.84337   1.84337   1.84337   1.89998   1.89998
 Alpha virt. eigenvalues --    1.89998   1.91250   1.91250   1.93878   1.93878
 Alpha virt. eigenvalues --    1.93878   1.97079   1.97079   1.97079   2.05112
 Alpha virt. eigenvalues --    2.09792   2.09792   2.09792   2.15837   2.16574
 Alpha virt. eigenvalues --    2.18085   2.18085   2.18085   2.25867   2.25867
 Alpha virt. eigenvalues --    2.25867   2.29076   2.29076   2.29076   2.38844
 Alpha virt. eigenvalues --    2.38963   2.38963   2.38963   2.41690   2.41690
 Alpha virt. eigenvalues --    2.53189   2.58441   2.58441   2.58441   2.62299
 Alpha virt. eigenvalues --    2.66723   2.66723   2.66723   2.69560   2.69560
 Alpha virt. eigenvalues --    2.75472   2.75472   2.75472   2.86926   2.86926
 Alpha virt. eigenvalues --    2.98476   2.98476   2.98476   3.14733   3.14733
 Alpha virt. eigenvalues --    3.19150   3.19150   3.19150   3.42142   3.42142
 Alpha virt. eigenvalues --    3.42142   3.61109   3.61483   3.61483   3.61483
 Alpha virt. eigenvalues --    3.65677   3.65677   3.65677   3.69588   3.69588
 Alpha virt. eigenvalues --    3.69588   3.86299   3.86299   3.86299   3.90932
 Alpha virt. eigenvalues --    3.98102   4.18393   4.18393   4.18393   4.19515
 Alpha virt. eigenvalues --    4.19515   4.27215   4.27994   4.27994   4.27994
 Alpha virt. eigenvalues --    4.37536   4.37536   4.37536   4.70671   4.70671
 Alpha virt. eigenvalues --    4.72280   4.72280   4.72280   4.92527   4.92527
 Alpha virt. eigenvalues --    4.92527   4.92958   4.92958   4.92958   4.93507
 Alpha virt. eigenvalues --    4.93507   5.21545   5.21545   5.21545   5.44958
 Alpha virt. eigenvalues --    5.64197   5.64197   5.64197   5.81893   6.16634
 Alpha virt. eigenvalues --    6.16634   6.63357   6.72336   6.72336   6.72336
 Alpha virt. eigenvalues --    6.72820   6.80919   6.80919   6.80919   6.89356
 Alpha virt. eigenvalues --    6.89356   6.89356   7.16209   7.16209   7.16209
 Alpha virt. eigenvalues --    7.22099   7.22099   7.22099   7.24217   7.24217
 Alpha virt. eigenvalues --    7.24217   7.27313   7.77846   7.77846   7.77846
 Alpha virt. eigenvalues --    7.88547   7.88547   7.88547   7.89848   7.89848
 Alpha virt. eigenvalues --    8.01840   8.25358   8.25358   8.25358   8.51022
 Alpha virt. eigenvalues --    8.66605   8.66605   8.77665   8.77665   8.77665
 Alpha virt. eigenvalues --    9.22247   9.22247   9.26298   9.26298   9.26298
 Alpha virt. eigenvalues --    9.36140   9.36140   9.36140   9.58006   9.58006
 Alpha virt. eigenvalues --    9.58006   9.70994   9.70994   9.73342   9.73342
 Alpha virt. eigenvalues --    9.73342   9.78848   9.82107   9.82107   9.82107
 Alpha virt. eigenvalues --    9.93751   9.93751  10.02840  10.02840  10.02840
 Alpha virt. eigenvalues --   10.20142  10.20142  10.20142  10.34904  10.34904
 Alpha virt. eigenvalues --   10.34904  10.46360  10.54954  10.54954  10.58504
 Alpha virt. eigenvalues --   10.58504  10.58504  11.10972  11.10972  11.10972
 Alpha virt. eigenvalues --   11.47813  11.60228  11.60228  11.60228  11.61038
 Alpha virt. eigenvalues --   11.61038  11.92734  12.62108  12.62108  12.62108
 Alpha virt. eigenvalues --   13.84946  13.84946  13.84946  14.15425  16.06228
 Alpha virt. eigenvalues --   16.06228  16.06228  16.71575  16.71575  16.78588
 Alpha virt. eigenvalues --   16.78588  16.78588  17.74484  17.74484  17.74484
 Alpha virt. eigenvalues --   19.89414  21.56347  21.56347  21.56347  21.73849
 Alpha virt. eigenvalues --   34.08740  34.08740  34.08740  36.22259  71.90387
          Condensed to atoms (all electrons):
              1          2          3          4          5
     1  C    3.933301   0.382417   0.382417   0.382417   0.382417
     2  H    0.382417   0.983964  -0.077374  -0.077374  -0.077374
     3  H    0.382417  -0.077374   0.983964  -0.077374  -0.077374
     4  H    0.382417  -0.077374  -0.077374   0.983964  -0.077374
     5  H    0.382417  -0.077374  -0.077374  -0.077374   0.983964
 Mulliken atomic charges:
              1
     1  C    0.537030
     2  H   -0.134258
     3  H   -0.134258
     4  H   -0.134258
     5  H   -0.134258
 Sum of Mulliken charges=   0.00000
 Atomic charges with hydrogens summed into heavy atoms:
              1
     1  C    0.000000
     2  H    0.000000
     3  H    0.000000
     4  H    0.000000
     5  H    0.000000
 Sum of Mulliken charges=   0.00000
 Electronic spatial extent (au):  <R**2>=    35.4866
 Charge=     0.0000 electrons
 Dipole moment (field-independent basis, Debye):
    X=     0.0000    Y=     0.0000    Z=     0.0000  Tot=     0.0000
 Quadrupole moment (field-independent basis, Debye-Ang):
   XX=    -8.3939   YY=    -8.3939   ZZ=    -8.3939
   XY=     0.0000   XZ=     0.0000   YZ=     0.0000
 Traceless Quadrupole moment (field-independent basis, Debye-Ang):
   XX=     0.0000   YY=     0.0000   ZZ=     0.0000
   XY=     0.0000   XZ=     0.0000   YZ=     0.0000
 Octapole moment (field-independent basis, Debye-Ang**2):
  XXX=     0.0000  YYY=     0.0000  ZZZ=     0.0000  XYY=     0.0000
  XXY=     0.0000  XXZ=     0.0000  XZZ=     0.0000  YZZ=     0.0000
  YYZ=     0.0000  XYZ=     0.6832
 Hexadecapole moment (field-independent basis, Debye-Ang**3):
 XXXX=   -16.5073 YYYY=   -16.5073 ZZZZ=   -16.5073 XXXY=     0.0000
 XXXZ=     0.0000 YYYX=     0.0000 YYYZ=     0.0000 ZZZX=     0.0000
 ZZZY=     0.0000 XXYY=    -4.9476 XXZZ=    -4.9476 YYZZ=    -4.9476
 XXYZ=     0.0000 YYXZ=     0.0000 ZZXY=     0.0000
 N-N= 1.351791045056D+01 E-N=-1.200980771038D+02  KE= 4.020384456648D+01
 Symmetry A    KE= 3.446676196127D+01
 Symmetry B1   KE= 1.912360868401D+00
 Symmetry B2   KE= 1.912360868401D+00
 Symmetry B3   KE= 1.912360868401D+00
 1\1\GINC-TITAN\SP\RHF\Aug-CC-pVQZ\C1H4\RRL581A\27-Feb-2006\0\\# HF/AUG
 -CC-PVQZ SCF=TIGHT 6D 10F GFINPUT PUNCH=MO\\CH4, very large basis\\0,1
 \C\H,1,1.083346\H,1,1.083346,2,109.47122063\H,1,1.083346,2,109.4712206
 3,3,109.47122063,1\H,1,1.083346,2,109.47122063,3,109.47122063,-1\\Vers
 ion=SGI64-G03RevC.02\State=1-A1\HF=-40.2164948\RMSD=7.343e-09\Dipole=0
 .,0.,0.\PG=TD [O(C1),4C3(H1)]\\@



 WE LOSE BECAUSE WE WIN

 GAMBLERS,

 RECOLLECTING WHICH,

 TOSS THEIR DICE AGAIN....


                          EMILY DICKINSON  BOLTS OF MELODY NO. 533
 Job cpu time:  0 days  0 hours 13 minutes 47.4 seconds.
 File lengths (MBytes):  RWF=     68 Int=      0 D2E=      0 Chk=     14 Scr=      1
 Normal termination of Gaussian 03 at Mon Feb 27 19:38:25 2006.
(5D15.8)
    1 Alpha MO OE=-0.11203038D+02
 0.99670117D+00 0.64500703D-02 0.29820007D-01-0.17566048D-01 0.81635840D-02
 0.00000000D+00 0.00000000D+00 0.00000000D+00 0.00000000D+00 0.00000000D+00
 0.00000000D+00 0.00000000D+00 0.00000000D+00 0.00000000D+00 0.00000000D+00
 0.00000000D+00 0.00000000D+00-0.17420511D-02-0.17420511D-02-0.17420511D-02
 0.00000000D+00 0.00000000D+00 0.00000000D+00 0.42113720D-02 0.42113720D-02
 0.42113720D-02 0.00000000D+00 0.00000000D+00 0.00000000D+00-0.10377955D-02
-0.10377955D-02-0.10377955D-02 0.00000000D+00 0.00000000D+00 0.00000000D+00
 0.00000000D+00 0.00000000D+00 0.00000000D+00 0.00000000D+00 0.00000000D+00
 0.00000000D+00 0.00000000D+00 0.00000000D+00 0.00000000D+00 0.19564822D-03
 0.00000000D+00 0.00000000D+00 0.00000000D+00 0.00000000D+00 0.00000000D+00
 0.00000000D+00 0.00000000D+00 0.00000000D+00 0.00000000D+00 0.11407376D-03
-0.18278699D-02 0.00000000D+00-0.96708606D-03 0.00000000D+00-0.18278699D-02
 0.00000000D+00 0.00000000D+00 0.00000000D+00 0.00000000D+00-0.96708606D-03
 0.00000000D+00-0.96708606D-03 0.00000000D+00 0.00000000D+00-0.18278699D-02
-0.60306757D-03 0.00000000D+00 0.00000000D+00 0.00000000D+00 0.56039329D-03
 0.56039329D-03 0.56039329D-03 0.00000000D+00 0.00000000D+00 0.00000000D+00
 0.00000000D+00 0.00000000D+00 0.00000000D+00 0.00000000D+00 0.00000000D+00
 0.00000000D+00 0.00000000D+00 0.00000000D+00 0.00000000D+00 0.26585400D-04
 0.18717031D-02 0.00000000D+00 0.11047738D-02 0.00000000D+00 0.18717031D-02
 0.00000000D+00 0.00000000D+00 0.00000000D+00 0.00000000D+00 0.11047738D-02
 0.00000000D+00 0.11047738D-02 0.00000000D+00 0.00000000D+00 0.18717031D-02
 0.13418409D-03 0.37784743D-03-0.33464938D-03-0.17648124D-02 0.52910875D-04
 0.52910874D-04 0.52910875D-04-0.32114717D-03-0.32114717D-03-0.32114717D-03
-0.10191135D-03-0.10191135D-03-0.10191135D-03 0.23149004D-04 0.23149004D-04
 0.23149004D-04 0.20333722D-04 0.20333722D-04 0.20333722D-04 0.14594084D-03
 0.14594084D-03 0.14594084D-03 0.10163703D-03 0.10163703D-03 0.10163703D-03
 0.11065233D-03 0.11065233D-03 0.11065233D-03 0.25601234D-04 0.25601234D-04
 0.25601234D-04 0.25601234D-04 0.25601234D-04 0.25601234D-04-0.36620161D-04
 0.97217212D-05 0.19421015D-03 0.19421015D-03 0.19421015D-03 0.10072228D-03
 0.10072228D-03 0.10072228D-03-0.33145313D-04-0.33145313D-04-0.33145313D-04
 0.11049030D-03 0.11049030D-03 0.11049030D-03 0.40978829D-04 0.40978829D-04
 0.40978829D-04 0.40978829D-04 0.40978829D-04 0.40978829D-04-0.13892940D-04
 0.13418409D-03 0.37784743D-03-0.33464938D-03-0.17648124D-02-0.52910875D-04
-0.52910874D-04 0.52910875D-04 0.32114717D-03 0.32114717D-03-0.32114717D-03
 0.10191135D-03 0.10191135D-03-0.10191135D-03 0.23149004D-04 0.23149004D-04
 0.23149004D-04 0.20333722D-04-0.20333722D-04-0.20333722D-04 0.14594084D-03
 0.14594084D-03 0.14594084D-03 0.10163703D-03-0.10163703D-03-0.10163703D-03
-0.11065233D-03-0.11065233D-03 0.11065233D-03-0.25601234D-04-0.25601234D-04
 0.25601234D-04-0.25601234D-04-0.25601234D-04 0.25601234D-04-0.36620161D-04
 0.97217212D-05-0.19421015D-03-0.19421015D-03 0.19421015D-03 0.10072228D-03
 0.10072228D-03 0.10072228D-03-0.33145313D-04 0.33145313D-04 0.33145313D-04
-0.11049030D-03-0.11049030D-03 0.11049030D-03-0.40978829D-04-0.40978829D-04
 0.40978829D-04-0.40978829D-04-0.40978829D-04 0.40978829D-04-0.13892940D-04
 0.13418409D-03 0.37784743D-03-0.33464938D-03-0.17648124D-02 0.52910875D-04
-0.52910874D-04-0.52910875D-04-0.32114717D-03 0.32114717D-03 0.32114717D-03
-0.10191135D-03 0.10191135D-03 0.10191135D-03 0.23149004D-04 0.23149004D-04
 0.23149004D-04-0.20333722D-04-0.20333722D-04 0.20333722D-04 0.14594084D-03
 0.14594084D-03 0.14594084D-03-0.10163703D-03-0.10163703D-03 0.10163703D-03
 0.11065233D-03-0.11065233D-03-0.11065233D-03 0.25601234D-04-0.25601234D-04
-0.25601234D-04 0.25601234D-04-0.25601234D-04-0.25601234D-04-0.36620161D-04
 0.97217212D-05 0.19421015D-03-0.19421015D-03-0.19421015D-03 0.10072228D-03
 0.10072228D-03 0.10072228D-03 0.33145313D-04 0.33145313D-04-0.33145313D-04
 0.11049030D-03-0.11049030D-03-0.11049030D-03 0.40978829D-04-0.40978829D-04
-0.40978829D-04 0.40978829D-04-0.40978829D-04-0.40978829D-04-0.13892940D-04
 0.13418409D-03 0.37784743D-03-0.33464938D-03-0.17648124D-02-0.52910875D-04
 0.52910874D-04-0.52910875D-04 0.32114717D-03-0.32114717D-03 0.32114717D-03
 0.10191135D-03-0.10191135D-03 0.10191135D-03 0.23149004D-04 0.23149004D-04
 0.23149004D-04-0.20333722D-04 0.20333722D-04-0.20333722D-04 0.14594084D-03
 0.14594084D-03 0.14594084D-03-0.10163703D-03 0.10163703D-03-0.10163703D-03
-0.11065233D-03 0.11065233D-03-0.11065233D-03-0.25601234D-04 0.25601234D-04
-0.25601234D-04-0.25601234D-04 0.25601234D-04-0.25601234D-04-0.36620161D-04
 0.97217212D-05-0.19421015D-03 0.19421015D-03-0.19421015D-03 0.10072228D-03
 0.10072228D-03 0.10072228D-03 0.33145313D-04-0.33145313D-04 0.33145313D-04
-0.11049030D-03 0.11049030D-03-0.11049030D-03-0.40978829D-04 0.40978829D-04
-0.40978829D-04-0.40978829D-04 0.40978829D-04-0.40978829D-04-0.13892940D-04
    2 Alpha MO OE=-0.94501692D+00
-0.13800512D-01 0.26659675D+00 0.90939706D-01 0.57374995D+00 0.12269563D-01
 0.00000000D+00 0.00000000D+00 0.00000000D+00 0.00000000D+00 0.00000000D+00
 0.00000000D+00 0.00000000D+00 0.00000000D+00 0.00000000D+00 0.00000000D+00
 0.00000000D+00 0.00000000D+00 0.89517636D-03 0.89517636D-03 0.89517636D-03
 0.00000000D+00 0.00000000D+00 0.00000000D+00-0.21496351D-01-0.21496351D-01
-0.21496351D-01 0.00000000D+00 0.00000000D+00 0.00000000D+00-0.28551815D-01
-0.28551815D-01-0.28551815D-01 0.00000000D+00 0.00000000D+00 0.00000000D+00
 0.00000000D+00 0.00000000D+00 0.00000000D+00 0.00000000D+00 0.00000000D+00
 0.00000000D+00 0.00000000D+00 0.00000000D+00 0.00000000D+00 0.34965789D-02
 0.00000000D+00 0.00000000D+00 0.00000000D+00 0.00000000D+00 0.00000000D+00
 0.00000000D+00 0.00000000D+00 0.00000000D+00 0.00000000D+00 0.40148630D-01
-0.23446566D-02 0.00000000D+00 0.85134737D-03 0.00000000D+00-0.23446566D-02
 0.00000000D+00 0.00000000D+00 0.00000000D+00 0.00000000D+00 0.85134737D-03
 0.00000000D+00 0.85134737D-03 0.00000000D+00 0.00000000D+00-0.23446566D-02
 0.25771761D-01 0.00000000D+00 0.00000000D+00 0.00000000D+00-0.15786675D-01
-0.15786675D-01-0.15786675D-01 0.00000000D+00 0.00000000D+00 0.00000000D+00
 0.00000000D+00 0.00000000D+00 0.00000000D+00 0.00000000D+00 0.00000000D+00
 0.00000000D+00 0.00000000D+00 0.00000000D+00 0.00000000D+00-0.63546502D-02
-0.28865793D-01 0.00000000D+00-0.65252070D-02 0.00000000D+00-0.28865793D-01
 0.00000000D+00 0.00000000D+00 0.00000000D+00 0.00000000D+00-0.65252070D-02
 0.00000000D+00-0.65252070D-02 0.00000000D+00 0.00000000D+00-0.28865793D-01
 0.33183844D-01 0.31481989D-01 0.15192275D+00 0.35879357D-01-0.59719790D-02
-0.59719790D-02-0.59719790D-02 0.14301082D-01 0.14301082D-01 0.14301082D-01
-0.39596974D-02-0.39596974D-02-0.39596974D-02 0.10215485D-02 0.10215485D-02
 0.10215485D-02 0.44136725D-03 0.44136725D-03 0.44136725D-03-0.94823148D-02
-0.94823148D-02-0.94823148D-02-0.18190446D-02-0.18190446D-02-0.18190446D-02
-0.52299617D-02-0.52299617D-02-0.52299617D-02-0.23726589D-02-0.23726589D-02
-0.23726589D-02-0.23726589D-02-0.23726589D-02-0.23726589D-02-0.24119766D-04
-0.73359830D-03-0.22928575D-02-0.22928575D-02-0.22928575D-02-0.91314417D-03
-0.91314417D-03-0.91314417D-03 0.16218665D-03 0.16218665D-03 0.16218665D-03
-0.51606985D-02-0.51606985D-02-0.51606985D-02-0.21657767D-02-0.21657767D-02
-0.21657767D-02-0.21657767D-02-0.21657767D-02-0.21657767D-02 0.99105062D-03
 0.33183844D-01 0.31481989D-01 0.15192275D+00 0.35879357D-01 0.59719790D-02
 0.59719790D-02-0.59719790D-02-0.14301082D-01-0.14301082D-01 0.14301082D-01
 0.39596974D-02 0.39596974D-02-0.39596974D-02 0.10215485D-02 0.10215485D-02
 0.10215485D-02 0.44136725D-03-0.44136725D-03-0.44136725D-03-0.94823148D-02
-0.94823148D-02-0.94823148D-02-0.18190446D-02 0.18190446D-02 0.18190446D-02
 0.52299617D-02 0.52299617D-02-0.52299617D-02 0.23726589D-02 0.23726589D-02
-0.23726589D-02 0.23726589D-02 0.23726589D-02-0.23726589D-02-0.24119766D-04
-0.73359830D-03 0.22928575D-02 0.22928575D-02-0.22928575D-02-0.91314417D-03
-0.91314417D-03-0.91314417D-03 0.16218665D-03-0.16218665D-03-0.16218665D-03
 0.51606985D-02 0.51606985D-02-0.51606985D-02 0.21657767D-02 0.21657767D-02
-0.21657767D-02 0.21657767D-02 0.21657767D-02-0.21657767D-02 0.99105062D-03
 0.33183844D-01 0.31481989D-01 0.15192275D+00 0.35879357D-01-0.59719790D-02
 0.59719790D-02 0.59719790D-02 0.14301082D-01-0.14301082D-01-0.14301082D-01
-0.39596974D-02 0.39596974D-02 0.39596974D-02 0.10215485D-02 0.10215485D-02
 0.10215485D-02-0.44136725D-03-0.44136725D-03 0.44136725D-03-0.94823148D-02
-0.94823148D-02-0.94823148D-02 0.18190446D-02 0.18190446D-02-0.18190446D-02
-0.52299617D-02 0.52299617D-02 0.52299617D-02-0.23726589D-02 0.23726589D-02
 0.23726589D-02-0.23726589D-02 0.23726589D-02 0.23726589D-02-0.24119766D-04
-0.73359830D-03-0.22928575D-02 0.22928575D-02 0.22928575D-02-0.91314417D-03
-0.91314417D-03-0.91314417D-03-0.16218665D-03-0.16218665D-03 0.16218665D-03
-0.51606985D-02 0.51606985D-02 0.51606985D-02-0.21657767D-02 0.21657767D-02
 0.21657767D-02-0.21657767D-02 0.21657767D-02 0.21657767D-02 0.99105062D-03
 0.33183844D-01 0.31481989D-01 0.15192275D+00 0.35879357D-01 0.59719790D-02
-0.59719790D-02 0.59719790D-02-0.14301082D-01 0.14301082D-01-0.14301082D-01
 0.39596974D-02-0.39596974D-02 0.39596974D-02 0.10215485D-02 0.10215485D-02
 0.10215485D-02-0.44136725D-03 0.44136725D-03-0.44136725D-03-0.94823148D-02
-0.94823148D-02-0.94823148D-02 0.18190446D-02-0.18190446D-02 0.18190446D-02
 0.52299617D-02-0.52299617D-02 0.52299617D-02 0.23726589D-02-0.23726589D-02
 0.23726589D-02 0.23726589D-02-0.23726589D-02 0.23726589D-02-0.24119766D-04
-0.73359830D-03 0.22928575D-02-0.22928575D-02 0.22928575D-02-0.91314417D-03
-0.91314417D-03-0.91314417D-03-0.16218665D-03 0.16218665D-03-0.16218665D-03
 0.51606985D-02-0.51606985D-02 0.51606985D-02 0.21657767D-02-0.21657767D-02
 0.21657767D-02 0.21657767D-02-0.21657767D-02 0.21657767D-02 0.99105062D-03
    3 Alpha MO OE=-0.54641119D+00
 0.00000000D+00 0.00000000D+00 0.00000000D+00 0.00000000D+00 0.00000000D+00
 0.11568191D+00 0.00000000D+00 0.00000000D+00 0.23960213D+00 0.00000000D+00
 0.00000000D+00 0.11319678D+00 0.00000000D+00 0.00000000D+00-0.52256873D-01
 0.00000000D+00 0.00000000D+00 0.00000000D+00 0.00000000D+00 0.00000000D+00
 0.00000000D+00 0.00000000D+00 0.10679166D-01 0.00000000D+00 0.00000000D+00
 0.00000000D+00 0.00000000D+00 0.00000000D+00 0.80351799D-02 0.00000000D+00
 0.00000000D+00 0.00000000D+00 0.00000000D+00 0.00000000D+00-0.47173564D-01
 0.67347491D-02 0.00000000D+00 0.00000000D+00 0.41744598D-02 0.00000000D+00
 0.00000000D+00 0.41744598D-02 0.00000000D+00 0.00000000D+00 0.00000000D+00
 0.60267025D-01 0.00000000D+00 0.00000000D+00 0.29244869D-01 0.00000000D+00
 0.00000000D+00 0.29244869D-01 0.00000000D+00 0.00000000D+00 0.00000000D+00
 0.00000000D+00 0.61241253D-02 0.00000000D+00 0.61241253D-02 0.00000000D+00
 0.00000000D+00 0.00000000D+00 0.00000000D+00 0.00000000D+00 0.00000000D+00
 0.40739492D-02 0.00000000D+00 0.00000000D+00 0.00000000D+00 0.00000000D+00
 0.00000000D+00-0.46191057D-03 0.00000000D+00 0.00000000D+00 0.00000000D+00
 0.00000000D+00 0.00000000D+00 0.00000000D+00 0.00000000D+00-0.75609839D-02
 0.57399303D-01 0.00000000D+00 0.00000000D+00 0.10994941D-01 0.00000000D+00
 0.00000000D+00 0.10994941D-01 0.00000000D+00 0.00000000D+00 0.00000000D+00
 0.00000000D+00 0.14959232D-01 0.00000000D+00 0.14959232D-01 0.00000000D+00
 0.00000000D+00 0.00000000D+00 0.00000000D+00 0.00000000D+00 0.00000000D+00
 0.63396593D-02 0.00000000D+00 0.00000000D+00 0.00000000D+00 0.00000000D+00
 0.39831415D-01 0.95777360D-01 0.17458021D+00 0.12819760D+00 0.94217426D-03
-0.54596621D-02-0.54596621D-02-0.65106304D-02 0.69591803D-02 0.69591803D-02
-0.11902424D-03-0.22559810D-01-0.22559810D-01 0.78676213D-03 0.13964772D-02
 0.13964772D-02 0.35261971D-03 0.35261971D-03 0.82960492D-03-0.61413443D-04
 0.26491331D-02 0.26491331D-02 0.16951130D-02 0.16951130D-02 0.33484669D-02
 0.16353282D-02-0.45650617D-02-0.45650617D-02 0.43810392D-03-0.20662978D-02
-0.20662978D-02 0.43810392D-03-0.24987849D-02-0.24987849D-02-0.46811754D-03
 0.28402862D-02-0.70753136D-02-0.86113562D-02-0.86113562D-02-0.18103738D-02
-0.13391420D-02-0.13391420D-02 0.52078027D-03 0.52078027D-03-0.85137920D-03
-0.32731520D-02 0.68069737D-02 0.68069737D-02-0.21548822D-02 0.31112915D-02
 0.31112915D-02-0.21548822D-02 0.27052865D-02 0.27052865D-02-0.76436810D-03
-0.39831415D-01-0.95777360D-01-0.17458021D+00-0.12819760D+00 0.94217426D-03
-0.54596621D-02 0.54596621D-02-0.65106304D-02 0.69591803D-02-0.69591803D-02
-0.11902424D-03-0.22559810D-01 0.22559810D-01-0.78676213D-03-0.13964772D-02
-0.13964772D-02-0.35261971D-03 0.35261971D-03 0.82960492D-03 0.61413443D-04
-0.26491331D-02-0.26491331D-02-0.16951130D-02 0.16951130D-02 0.33484669D-02
 0.16353282D-02-0.45650617D-02 0.45650617D-02 0.43810392D-03-0.20662978D-02
 0.20662978D-02 0.43810392D-03-0.24987849D-02 0.24987849D-02 0.46811754D-03
-0.28402862D-02-0.70753136D-02-0.86113562D-02 0.86113562D-02 0.18103738D-02
 0.13391420D-02 0.13391420D-02-0.52078027D-03 0.52078027D-03-0.85137920D-03
-0.32731520D-02 0.68069737D-02-0.68069737D-02-0.21548822D-02 0.31112915D-02
-0.31112915D-02-0.21548822D-02 0.27052865D-02-0.27052865D-02 0.76436810D-03
 0.39831415D-01 0.95777360D-01 0.17458021D+00 0.12819760D+00 0.94217426D-03
 0.54596621D-02 0.54596621D-02-0.65106304D-02-0.69591803D-02-0.69591803D-02
-0.11902424D-03 0.22559810D-01 0.22559810D-01 0.78676213D-03 0.13964772D-02
 0.13964772D-02-0.35261971D-03-0.35261971D-03 0.82960492D-03-0.61413443D-04
 0.26491331D-02 0.26491331D-02-0.16951130D-02-0.16951130D-02 0.33484669D-02
 0.16353282D-02 0.45650617D-02 0.45650617D-02 0.43810392D-03 0.20662978D-02
 0.20662978D-02 0.43810392D-03 0.24987849D-02 0.24987849D-02-0.46811754D-03
 0.28402862D-02-0.70753136D-02 0.86113562D-02 0.86113562D-02-0.18103738D-02
-0.13391420D-02-0.13391420D-02-0.52078027D-03-0.52078027D-03-0.85137920D-03
-0.32731520D-02-0.68069737D-02-0.68069737D-02-0.21548822D-02-0.31112915D-02
-0.31112915D-02-0.21548822D-02-0.27052865D-02-0.27052865D-02-0.76436810D-03
-0.39831415D-01-0.95777360D-01-0.17458021D+00-0.12819760D+00 0.94217426D-03
 0.54596621D-02-0.54596621D-02-0.65106304D-02-0.69591803D-02 0.69591803D-02
-0.11902424D-03 0.22559810D-01-0.22559810D-01-0.78676213D-03-0.13964772D-02
-0.13964772D-02 0.35261971D-03-0.35261971D-03 0.82960492D-03 0.61413443D-04
-0.26491331D-02-0.26491331D-02 0.16951130D-02-0.16951130D-02 0.33484669D-02
 0.16353282D-02 0.45650617D-02-0.45650617D-02 0.43810392D-03 0.20662978D-02
-0.20662978D-02 0.43810392D-03 0.24987849D-02-0.24987849D-02 0.46811754D-03
-0.28402862D-02-0.70753136D-02 0.86113562D-02-0.86113562D-02 0.18103738D-02
 0.13391420D-02 0.13391420D-02 0.52078027D-03-0.52078027D-03-0.85137920D-03
-0.32731520D-02-0.68069737D-02 0.68069737D-02-0.21548822D-02-0.31112915D-02
 0.31112915D-02-0.21548822D-02-0.27052865D-02 0.27052865D-02 0.76436810D-03
    4 Alpha MO OE=-0.54641119D+00
 0.00000000D+00 0.00000000D+00 0.00000000D+00 0.00000000D+00 0.00000000D+00
 0.00000000D+00 0.11568191D+00 0.00000000D+00 0.00000000D+00 0.23960213D+00
 0.00000000D+00 0.00000000D+00 0.11319678D+00 0.00000000D+00 0.00000000D+00
-0.52256873D-01 0.00000000D+00 0.00000000D+00 0.00000000D+00 0.00000000D+00
 0.00000000D+00 0.10679166D-01 0.00000000D+00 0.00000000D+00 0.00000000D+00
 0.00000000D+00 0.00000000D+00 0.80351799D-02 0.00000000D+00 0.00000000D+00
 0.00000000D+00 0.00000000D+00 0.00000000D+00-0.47173564D-01 0.00000000D+00
 0.00000000D+00 0.67347491D-02 0.00000000D+00 0.00000000D+00 0.41744598D-02
 0.00000000D+00 0.00000000D+00 0.41744598D-02 0.00000000D+00 0.00000000D+00
 0.00000000D+00 0.60267025D-01 0.00000000D+00 0.00000000D+00 0.29244869D-01
 0.00000000D+00 0.00000000D+00 0.29244869D-01 0.00000000D+00 0.00000000D+00
 0.00000000D+00 0.00000000D+00 0.00000000D+00 0.00000000D+00 0.00000000D+00
 0.61241253D-02 0.00000000D+00 0.40739492D-02 0.00000000D+00 0.00000000D+00
 0.00000000D+00 0.00000000D+00 0.61241253D-02 0.00000000D+00 0.00000000D+00
 0.00000000D+00 0.00000000D+00-0.46191057D-03 0.00000000D+00 0.00000000D+00
 0.00000000D+00 0.00000000D+00 0.00000000D+00-0.75609839D-02 0.00000000D+00
 0.00000000D+00 0.57399303D-01 0.00000000D+00 0.00000000D+00 0.10994941D-01
 0.00000000D+00 0.00000000D+00 0.10994941D-01 0.00000000D+00 0.00000000D+00
 0.00000000D+00 0.00000000D+00 0.00000000D+00 0.00000000D+00 0.00000000D+00
 0.14959232D-01 0.00000000D+00 0.63396593D-02 0.00000000D+00 0.00000000D+00
 0.00000000D+00 0.00000000D+00 0.14959232D-01 0.00000000D+00 0.00000000D+00
 0.39831415D-01 0.95777360D-01 0.17458021D+00 0.12819760D+00-0.54596621D-02
 0.94217426D-03-0.54596621D-02 0.69591803D-02-0.65106304D-02 0.69591803D-02
-0.22559810D-01-0.11902424D-03-0.22559810D-01 0.13964772D-02 0.78676213D-03
 0.13964772D-02 0.35261971D-03 0.82960492D-03 0.35261971D-03 0.26491331D-02
-0.61413443D-04 0.26491331D-02 0.16951130D-02 0.33484669D-02 0.16951130D-02
-0.45650617D-02 0.16353282D-02-0.45650617D-02-0.20662978D-02 0.43810392D-03
-0.24987849D-02-0.24987849D-02 0.43810392D-03-0.20662978D-02-0.46811754D-03
 0.28402862D-02-0.86113562D-02-0.70753136D-02-0.86113562D-02-0.13391420D-02
-0.18103738D-02-0.13391420D-02 0.52078027D-03-0.85137920D-03 0.52078027D-03
 0.68069737D-02-0.32731520D-02 0.68069737D-02 0.31112915D-02-0.21548822D-02
 0.27052865D-02 0.27052865D-02-0.21548822D-02 0.31112915D-02-0.76436810D-03
-0.39831415D-01-0.95777360D-01-0.17458021D+00-0.12819760D+00-0.54596621D-02
 0.94217426D-03 0.54596621D-02 0.69591803D-02-0.65106304D-02-0.69591803D-02
-0.22559810D-01-0.11902424D-03 0.22559810D-01-0.13964772D-02-0.78676213D-03
-0.13964772D-02-0.35261971D-03 0.82960492D-03 0.35261971D-03-0.26491331D-02
 0.61413443D-04-0.26491331D-02-0.16951130D-02 0.33484669D-02 0.16951130D-02
-0.45650617D-02 0.16353282D-02 0.45650617D-02-0.20662978D-02 0.43810392D-03
 0.24987849D-02-0.24987849D-02 0.43810392D-03 0.20662978D-02 0.46811754D-03
-0.28402862D-02-0.86113562D-02-0.70753136D-02 0.86113562D-02 0.13391420D-02
 0.18103738D-02 0.13391420D-02-0.52078027D-03-0.85137920D-03 0.52078027D-03
 0.68069737D-02-0.32731520D-02-0.68069737D-02 0.31112915D-02-0.21548822D-02
-0.27052865D-02 0.27052865D-02-0.21548822D-02-0.31112915D-02 0.76436810D-03
-0.39831415D-01-0.95777360D-01-0.17458021D+00-0.12819760D+00 0.54596621D-02
 0.94217426D-03-0.54596621D-02-0.69591803D-02-0.65106304D-02 0.69591803D-02
 0.22559810D-01-0.11902424D-03-0.22559810D-01-0.13964772D-02-0.78676213D-03
-0.13964772D-02 0.35261971D-03 0.82960492D-03-0.35261971D-03-0.26491331D-02
 0.61413443D-04-0.26491331D-02 0.16951130D-02 0.33484669D-02-0.16951130D-02
 0.45650617D-02 0.16353282D-02-0.45650617D-02 0.20662978D-02 0.43810392D-03
-0.24987849D-02 0.24987849D-02 0.43810392D-03-0.20662978D-02 0.46811754D-03
-0.28402862D-02 0.86113562D-02-0.70753136D-02-0.86113562D-02 0.13391420D-02
 0.18103738D-02 0.13391420D-02 0.52078027D-03-0.85137920D-03-0.52078027D-03
-0.68069737D-02-0.32731520D-02 0.68069737D-02-0.31112915D-02-0.21548822D-02
 0.27052865D-02-0.27052865D-02-0.21548822D-02 0.31112915D-02 0.76436810D-03
 0.39831415D-01 0.95777360D-01 0.17458021D+00 0.12819760D+00 0.54596621D-02
 0.94217426D-03 0.54596621D-02-0.69591803D-02-0.65106304D-02-0.69591803D-02
 0.22559810D-01-0.11902424D-03 0.22559810D-01 0.13964772D-02 0.78676213D-03
 0.13964772D-02-0.35261971D-03 0.82960492D-03-0.35261971D-03 0.26491331D-02
-0.61413443D-04 0.26491331D-02-0.16951130D-02 0.33484669D-02-0.16951130D-02
 0.45650617D-02 0.16353282D-02 0.45650617D-02 0.20662978D-02 0.43810392D-03
 0.24987849D-02 0.24987849D-02 0.43810392D-03 0.20662978D-02-0.46811754D-03
 0.28402862D-02 0.86113562D-02-0.70753136D-02 0.86113562D-02-0.13391420D-02
-0.18103738D-02-0.13391420D-02-0.52078027D-03-0.85137920D-03-0.52078027D-03
-0.68069737D-02-0.32731520D-02-0.68069737D-02-0.31112915D-02-0.21548822D-02
-0.27052865D-02-0.27052865D-02-0.21548822D-02-0.31112915D-02-0.76436810D-03
    5 Alpha MO OE=-0.54641119D+00
 0.00000000D+00 0.00000000D+00 0.00000000D+00 0.00000000D+00 0.00000000D+00
 0.00000000D+00 0.00000000D+00 0.11568191D+00 0.00000000D+00 0.00000000D+00
 0.23960213D+00 0.00000000D+00 0.00000000D+00 0.11319678D+00 0.00000000D+00
 0.00000000D+00-0.52256873D-01 0.00000000D+00 0.00000000D+00 0.00000000D+00
 0.10679166D-01 0.00000000D+00 0.00000000D+00 0.00000000D+00 0.00000000D+00
 0.00000000D+00 0.80351799D-02 0.00000000D+00 0.00000000D+00 0.00000000D+00
 0.00000000D+00 0.00000000D+00-0.47173564D-01 0.00000000D+00 0.00000000D+00
 0.00000000D+00 0.00000000D+00 0.67347491D-02 0.00000000D+00 0.00000000D+00
 0.41744598D-02 0.00000000D+00 0.00000000D+00 0.41744598D-02 0.00000000D+00
 0.00000000D+00 0.00000000D+00 0.60267025D-01 0.00000000D+00 0.00000000D+00
 0.29244869D-01 0.00000000D+00 0.00000000D+00 0.29244869D-01 0.00000000D+00
 0.00000000D+00 0.00000000D+00 0.00000000D+00 0.00000000D+00 0.00000000D+00
 0.00000000D+00 0.40739492D-02 0.00000000D+00 0.61241253D-02 0.00000000D+00
 0.00000000D+00 0.00000000D+00 0.00000000D+00 0.61241253D-02 0.00000000D+00
 0.00000000D+00 0.00000000D+00 0.00000000D+00-0.46191057D-03 0.00000000D+00
 0.00000000D+00 0.00000000D+00-0.75609839D-02 0.00000000D+00 0.00000000D+00
 0.00000000D+00 0.00000000D+00 0.57399303D-01 0.00000000D+00 0.00000000D+00
 0.10994941D-01 0.00000000D+00 0.00000000D+00 0.10994941D-01 0.00000000D+00
 0.00000000D+00 0.00000000D+00 0.00000000D+00 0.00000000D+00 0.00000000D+00
 0.00000000D+00 0.63396593D-02 0.00000000D+00 0.14959232D-01 0.00000000D+00
 0.00000000D+00 0.00000000D+00 0.00000000D+00 0.14959232D-01 0.00000000D+00
 0.39831415D-01 0.95777360D-01 0.17458021D+00 0.12819760D+00-0.54596621D-02
-0.54596621D-02 0.94217426D-03 0.69591803D-02 0.69591803D-02-0.65106304D-02
-0.22559810D-01-0.22559810D-01-0.11902424D-03 0.13964772D-02 0.13964772D-02
 0.78676213D-03 0.82960492D-03 0.35261971D-03 0.35261971D-03 0.26491331D-02
 0.26491331D-02-0.61413443D-04 0.33484669D-02 0.16951130D-02 0.16951130D-02
-0.45650617D-02-0.45650617D-02 0.16353282D-02-0.24987849D-02-0.24987849D-02
 0.43810392D-03-0.20662978D-02-0.20662978D-02 0.43810392D-03-0.46811754D-03
 0.28402862D-02-0.86113562D-02-0.86113562D-02-0.70753136D-02-0.13391420D-02
-0.13391420D-02-0.18103738D-02-0.85137920D-03 0.52078027D-03 0.52078027D-03
 0.68069737D-02 0.68069737D-02-0.32731520D-02 0.27052865D-02 0.27052865D-02
-0.21548822D-02 0.31112915D-02 0.31112915D-02-0.21548822D-02-0.76436810D-03
 0.39831415D-01 0.95777360D-01 0.17458021D+00 0.12819760D+00 0.54596621D-02
 0.54596621D-02 0.94217426D-03-0.69591803D-02-0.69591803D-02-0.65106304D-02
 0.22559810D-01 0.22559810D-01-0.11902424D-03 0.13964772D-02 0.13964772D-02
 0.78676213D-03 0.82960492D-03-0.35261971D-03-0.35261971D-03 0.26491331D-02
 0.26491331D-02-0.61413443D-04 0.33484669D-02-0.16951130D-02-0.16951130D-02
 0.45650617D-02 0.45650617D-02 0.16353282D-02 0.24987849D-02 0.24987849D-02
 0.43810392D-03 0.20662978D-02 0.20662978D-02 0.43810392D-03-0.46811754D-03
 0.28402862D-02 0.86113562D-02 0.86113562D-02-0.70753136D-02-0.13391420D-02
-0.13391420D-02-0.18103738D-02-0.85137920D-03-0.52078027D-03-0.52078027D-03
-0.68069737D-02-0.68069737D-02-0.32731520D-02-0.27052865D-02-0.27052865D-02
-0.21548822D-02-0.31112915D-02-0.31112915D-02-0.21548822D-02-0.76436810D-03
-0.39831415D-01-0.95777360D-01-0.17458021D+00-0.12819760D+00 0.54596621D-02
-0.54596621D-02 0.94217426D-03-0.69591803D-02 0.69591803D-02-0.65106304D-02
 0.22559810D-01-0.22559810D-01-0.11902424D-03-0.13964772D-02-0.13964772D-02
-0.78676213D-03 0.82960492D-03 0.35261971D-03-0.35261971D-03-0.26491331D-02
-0.26491331D-02 0.61413443D-04 0.33484669D-02 0.16951130D-02-0.16951130D-02
 0.45650617D-02-0.45650617D-02 0.16353282D-02 0.24987849D-02-0.24987849D-02
 0.43810392D-03 0.20662978D-02-0.20662978D-02 0.43810392D-03 0.46811754D-03
-0.28402862D-02 0.86113562D-02-0.86113562D-02-0.70753136D-02 0.13391420D-02
 0.13391420D-02 0.18103738D-02-0.85137920D-03 0.52078027D-03-0.52078027D-03
-0.68069737D-02 0.68069737D-02-0.32731520D-02-0.27052865D-02 0.27052865D-02
-0.21548822D-02-0.31112915D-02 0.31112915D-02-0.21548822D-02 0.76436810D-03
-0.39831415D-01-0.95777360D-01-0.17458021D+00-0.12819760D+00-0.54596621D-02
 0.54596621D-02 0.94217426D-03 0.69591803D-02-0.69591803D-02-0.65106304D-02
-0.22559810D-01 0.22559810D-01-0.11902424D-03-0.13964772D-02-0.13964772D-02
-0.78676213D-03 0.82960492D-03-0.35261971D-03 0.35261971D-03-0.26491331D-02
-0.26491331D-02 0.61413443D-04 0.33484669D-02-0.16951130D-02 0.16951130D-02
-0.45650617D-02 0.45650617D-02 0.16353282D-02-0.24987849D-02 0.24987849D-02
 0.43810392D-03-0.20662978D-02 0.20662978D-02 0.43810392D-03 0.46811754D-03
-0.28402862D-02-0.86113562D-02 0.86113562D-02-0.70753136D-02 0.13391420D-02
 0.13391420D-02 0.18103738D-02-0.85137920D-03-0.52078027D-03 0.52078027D-03
 0.68069737D-02-0.68069737D-02-0.32731520D-02 0.27052865D-02-0.27052865D-02
-0.21548822D-02 0.31112915D-02-0.31112915D-02-0.21548822D-02 0.76436810D-03
    6 Alpha MO OE= 0.24221926D-01
-0.18359604D-02-0.37129709D-01 0.43534246D-01-0.17517322D+01 0.24932404D+02
 0.00000000D+00 0.00000000D+00 0.00000000D+00 0.00000000D+00 0.00000000D+00
 0.00000000D+00 0.00000000D+00 0.00000000D+00 0.00000000D+00 0.00000000D+00
 0.00000000D+00 0.00000000D+00 0.21903501D-02 0.21903501D-02 0.21903501D-02
 0.00000000D+00 0.00000000D+00 0.00000000D+00 0.47465346D-01 0.47465346D-01
 0.47465346D-01 0.00000000D+00 0.00000000D+00 0.00000000D+00-0.88362104D+00
-0.88362104D+00-0.88362104D+00 0.00000000D+00 0.00000000D+00 0.00000000D+00
 0.00000000D+00 0.00000000D+00 0.00000000D+00 0.00000000D+00 0.00000000D+00
 0.00000000D+00 0.00000000D+00 0.00000000D+00 0.00000000D+00 0.22362320D-02
 0.00000000D+00 0.00000000D+00 0.00000000D+00 0.00000000D+00 0.00000000D+00
 0.00000000D+00 0.00000000D+00 0.00000000D+00 0.00000000D+00 0.68520491D-02
 0.62373520D-02 0.00000000D+00 0.41327477D-02 0.00000000D+00 0.62373520D-02
 0.00000000D+00 0.00000000D+00 0.00000000D+00 0.00000000D+00 0.41327477D-02
 0.00000000D+00 0.41327477D-02 0.00000000D+00 0.00000000D+00 0.62373520D-02
-0.17781784D+02 0.00000000D+00 0.00000000D+00 0.00000000D+00 0.56900869D+01
 0.56900869D+01 0.56900869D+01 0.00000000D+00 0.00000000D+00 0.00000000D+00
 0.00000000D+00 0.00000000D+00 0.00000000D+00 0.00000000D+00 0.00000000D+00
 0.00000000D+00 0.00000000D+00 0.00000000D+00 0.00000000D+00-0.99590154D-01
 0.73111065D-01 0.00000000D+00 0.35983846D-01 0.00000000D+00 0.73111065D-01
 0.00000000D+00 0.00000000D+00 0.00000000D+00 0.00000000D+00 0.35983846D-01
 0.00000000D+00 0.35983846D-01 0.00000000D+00 0.00000000D+00 0.73111065D-01
-0.75615722D-04-0.58654912D-02 0.10951576D+01-0.65158705D+01 0.19074984D-02
 0.19074984D-02 0.19074984D-02-0.71318946D-02-0.71318946D-02-0.71318946D-02
 0.82053298D-01 0.82053298D-01 0.82053298D-01 0.31157200D-03 0.31157200D-03
 0.31157200D-03 0.30768063D-03 0.30768063D-03 0.30768063D-03-0.21521994D-02
-0.21521994D-02-0.21521994D-02-0.86522894D-02-0.86522894D-02-0.86522894D-02
 0.20464869D-02 0.20464869D-02 0.20464869D-02 0.13865508D-02 0.13865508D-02
 0.13865508D-02 0.13865508D-02 0.13865508D-02 0.13865508D-02 0.53072519D-03
 0.14493546D+01 0.66743578D+00 0.66743578D+00 0.66743578D+00 0.39609216D+00
 0.39609216D+00 0.39609216D+00-0.66836644D-01-0.66836644D-01-0.66836644D-01
-0.19225571D-01-0.19225571D-01-0.19225571D-01-0.45095721D-02-0.45095721D-02
-0.45095721D-02-0.45095721D-02-0.45095721D-02-0.45095721D-02 0.78694801D-02
-0.75615722D-04-0.58654912D-02 0.10951576D+01-0.65158705D+01-0.19074984D-02
-0.19074984D-02 0.19074984D-02 0.71318946D-02 0.71318946D-02-0.71318946D-02
-0.82053298D-01-0.82053298D-01 0.82053298D-01 0.31157200D-03 0.31157200D-03
 0.31157200D-03 0.30768063D-03-0.30768063D-03-0.30768063D-03-0.21521994D-02
-0.21521994D-02-0.21521994D-02-0.86522894D-02 0.86522894D-02 0.86522894D-02
-0.20464869D-02-0.20464869D-02 0.20464869D-02-0.13865508D-02-0.13865508D-02
 0.13865508D-02-0.13865508D-02-0.13865508D-02 0.13865508D-02 0.53072519D-03
 0.14493546D+01-0.66743578D+00-0.66743578D+00 0.66743578D+00 0.39609216D+00
 0.39609216D+00 0.39609216D+00-0.66836644D-01 0.66836644D-01 0.66836644D-01
 0.19225571D-01 0.19225571D-01-0.19225571D-01 0.45095721D-02 0.45095721D-02
-0.45095721D-02 0.45095721D-02 0.45095721D-02-0.45095721D-02 0.78694801D-02
-0.75615722D-04-0.58654912D-02 0.10951576D+01-0.65158705D+01 0.19074984D-02
-0.19074984D-02-0.19074984D-02-0.71318946D-02 0.71318946D-02 0.71318946D-02
 0.82053298D-01-0.82053298D-01-0.82053298D-01 0.31157200D-03 0.31157200D-03
 0.31157200D-03-0.30768063D-03-0.30768063D-03 0.30768063D-03-0.21521994D-02
-0.21521994D-02-0.21521994D-02 0.86522894D-02 0.86522894D-02-0.86522894D-02
 0.20464869D-02-0.20464869D-02-0.20464869D-02 0.13865508D-02-0.13865508D-02
-0.13865508D-02 0.13865508D-02-0.13865508D-02-0.13865508D-02 0.53072519D-03
 0.14493546D+01 0.66743578D+00-0.66743578D+00-0.66743578D+00 0.39609216D+00
 0.39609216D+00 0.39609216D+00 0.66836644D-01 0.66836644D-01-0.66836644D-01
-0.19225571D-01 0.19225571D-01 0.19225571D-01-0.45095721D-02 0.45095721D-02
 0.45095721D-02-0.45095721D-02 0.45095721D-02 0.45095721D-02 0.78694801D-02
-0.75615722D-04-0.58654912D-02 0.10951576D+01-0.65158705D+01-0.19074984D-02
 0.19074984D-02-0.19074984D-02 0.71318946D-02-0.71318946D-02 0.71318946D-02
-0.82053298D-01 0.82053298D-01-0.82053298D-01 0.31157200D-03 0.31157200D-03
 0.31157200D-03-0.30768063D-03 0.30768063D-03-0.30768063D-03-0.21521994D-02
-0.21521994D-02-0.21521994D-02 0.86522894D-02-0.86522894D-02 0.86522894D-02
-0.20464869D-02 0.20464869D-02-0.20464869D-02-0.13865508D-02 0.13865508D-02
-0.13865508D-02-0.13865508D-02 0.13865508D-02-0.13865508D-02 0.53072519D-03
 0.14493546D+01-0.66743578D+00 0.66743578D+00-0.66743578D+00 0.39609216D+00
 0.39609216D+00 0.39609216D+00 0.66836644D-01-0.66836644D-01 0.66836644D-01
 0.19225571D-01-0.19225571D-01 0.19225571D-01 0.45095721D-02-0.45095721D-02
 0.45095721D-02 0.45095721D-02-0.45095721D-02 0.45095721D-02 0.78694801D-02
    7 Alpha MO OE= 0.43971528D-01
 0.00000000D+00 0.00000000D+00 0.00000000D+00 0.00000000D+00 0.00000000D+00
 0.00000000D+00 0.10085918D-01 0.00000000D+00 0.00000000D+00-0.87228925D-01
 0.00000000D+00 0.00000000D+00-0.95716941D+00 0.00000000D+00 0.00000000D+00
 0.10612317D+02 0.00000000D+00 0.00000000D+00 0.00000000D+00 0.00000000D+00
 0.00000000D+00 0.58412486D-02 0.00000000D+00 0.00000000D+00 0.00000000D+00
 0.00000000D+00 0.00000000D+00 0.89242583D-02 0.00000000D+00 0.00000000D+00
 0.00000000D+00 0.00000000D+00 0.00000000D+00-0.22216728D+00 0.00000000D+00
 0.00000000D+00-0.84591622D-02 0.00000000D+00 0.00000000D+00-0.44520166D-02
 0.00000000D+00 0.00000000D+00-0.44520166D-02 0.00000000D+00 0.00000000D+00
 0.00000000D+00-0.21809022D+00 0.00000000D+00 0.00000000D+00-0.96316295D-01
 0.00000000D+00 0.00000000D+00-0.96316295D-01 0.00000000D+00 0.00000000D+00
 0.00000000D+00 0.00000000D+00 0.00000000D+00 0.00000000D+00 0.00000000D+00
 0.11620783D-01 0.00000000D+00 0.41363449D-02 0.00000000D+00 0.00000000D+00
 0.00000000D+00 0.00000000D+00 0.11620783D-01 0.00000000D+00 0.00000000D+00
 0.00000000D+00 0.00000000D+00 0.30506954D+01 0.00000000D+00 0.00000000D+00
 0.00000000D+00 0.00000000D+00 0.00000000D+00 0.12653925D+01 0.00000000D+00
 0.00000000D+00-0.19909850D+01 0.00000000D+00 0.00000000D+00-0.98789157D+00
 0.00000000D+00 0.00000000D+00-0.98789157D+00 0.00000000D+00 0.00000000D+00
 0.00000000D+00 0.00000000D+00 0.00000000D+00 0.00000000D+00 0.00000000D+00
 0.74397469D-01 0.00000000D+00 0.35524702D-01 0.00000000D+00 0.00000000D+00
 0.00000000D+00 0.00000000D+00 0.74397469D-01 0.00000000D+00 0.00000000D+00
 0.20548625D-02-0.45340567D-02 0.73692410D+00-0.90173002D+01-0.13172571D-03
-0.21441838D-02-0.13172571D-03-0.84453924D-03 0.10909907D-01-0.84453924D-03
 0.53493285D-01 0.37777142D-01 0.53493285D-01-0.13885433D-03 0.24159086D-03
-0.13885433D-03-0.17229230D-03-0.84259086D-04-0.17229230D-03-0.99657881D-03
-0.60374319D-02-0.99657881D-03 0.23702826D-02 0.32645259D-02 0.23702826D-02
 0.17784206D-04-0.25297208D-02 0.17784205D-04-0.33554063D-03-0.12240899D-02
-0.39805339D-03-0.39805339D-03-0.12240899D-02-0.33554063D-03-0.20093441D-03
-0.47068875D+01 0.10799942D+01 0.88454570D+00 0.10799942D+01 0.26629374D+00
 0.21916084D+00 0.26629374D+00-0.50834696D-01-0.55306945D-01-0.50834696D-01
 0.10180371D-01 0.28841131D-01 0.10180371D-01 0.11300147D-01 0.91881220D-02
 0.52498359D-02 0.52498359D-02 0.91881220D-02 0.11300147D-01-0.23129147D-02
-0.20548625D-02 0.45340567D-02-0.73692410D+00 0.90173002D+01-0.13172571D-03
-0.21441838D-02 0.13172571D-03-0.84453924D-03 0.10909907D-01 0.84453924D-03
 0.53493285D-01 0.37777142D-01-0.53493285D-01 0.13885433D-03-0.24159086D-03
 0.13885433D-03 0.17229230D-03-0.84259086D-04-0.17229230D-03 0.99657881D-03
 0.60374319D-02 0.99657881D-03-0.23702826D-02 0.32645259D-02 0.23702826D-02
 0.17784206D-04-0.25297208D-02-0.17784205D-04-0.33554063D-03-0.12240899D-02
 0.39805339D-03-0.39805339D-03-0.12240899D-02 0.33554063D-03 0.20093441D-03
 0.47068875D+01 0.10799942D+01 0.88454570D+00-0.10799942D+01-0.26629374D+00
-0.21916084D+00-0.26629374D+00 0.50834696D-01-0.55306945D-01-0.50834696D-01
 0.10180371D-01 0.28841131D-01-0.10180371D-01 0.11300147D-01 0.91881220D-02
-0.52498359D-02 0.52498359D-02 0.91881220D-02-0.11300147D-01 0.23129147D-02
-0.20548625D-02 0.45340567D-02-0.73692410D+00 0.90173002D+01 0.13172571D-03
-0.21441838D-02-0.13172571D-03 0.84453924D-03 0.10909907D-01-0.84453924D-03
-0.53493285D-01 0.37777142D-01 0.53493285D-01 0.13885433D-03-0.24159086D-03
 0.13885433D-03-0.17229230D-03-0.84259086D-04 0.17229230D-03 0.99657881D-03
 0.60374319D-02 0.99657881D-03 0.23702826D-02 0.32645259D-02-0.23702826D-02
-0.17784206D-04-0.25297208D-02 0.17784205D-04 0.33554063D-03-0.12240899D-02
-0.39805339D-03 0.39805339D-03-0.12240899D-02-0.33554063D-03 0.20093441D-03
 0.47068875D+01-0.10799942D+01 0.88454570D+00 0.10799942D+01-0.26629374D+00
-0.21916084D+00-0.26629374D+00-0.50834696D-01-0.55306945D-01 0.50834696D-01
-0.10180371D-01 0.28841131D-01 0.10180371D-01-0.11300147D-01 0.91881220D-02
 0.52498359D-02-0.52498359D-02 0.91881220D-02 0.11300147D-01 0.23129147D-02
 0.20548625D-02-0.45340567D-02 0.73692410D+00-0.90173002D+01 0.13172571D-03
-0.21441838D-02 0.13172571D-03 0.84453924D-03 0.10909907D-01 0.84453924D-03
-0.53493285D-01 0.37777142D-01-0.53493285D-01-0.13885433D-03 0.24159086D-03
-0.13885433D-03 0.17229230D-03-0.84259086D-04 0.17229230D-03-0.99657881D-03
-0.60374319D-02-0.99657881D-03-0.23702826D-02 0.32645259D-02-0.23702826D-02
-0.17784206D-04-0.25297208D-02-0.17784205D-04 0.33554063D-03-0.12240899D-02
 0.39805339D-03 0.39805339D-03-0.12240899D-02 0.33554063D-03-0.20093441D-03
-0.47068875D+01-0.10799942D+01 0.88454570D+00-0.10799942D+01 0.26629374D+00
 0.21916084D+00 0.26629374D+00 0.50834696D-01-0.55306945D-01 0.50834696D-01
-0.10180371D-01 0.28841131D-01-0.10180371D-01-0.11300147D-01 0.91881220D-02
-0.52498359D-02-0.52498359D-02 0.91881220D-02-0.11300147D-01-0.23129147D-02
    8 Alpha MO OE= 0.43971528D-01
 0.00000000D+00 0.00000000D+00 0.00000000D+00 0.00000000D+00 0.00000000D+00
 0.10085918D-01 0.00000000D+00 0.00000000D+00-0.87228925D-01 0.00000000D+00
 0.00000000D+00-0.95716941D+00 0.00000000D+00 0.00000000D+00 0.10612317D+02
 0.00000000D+00 0.00000000D+00 0.00000000D+00 0.00000000D+00 0.00000000D+00
 0.00000000D+00 0.00000000D+00 0.58412486D-02 0.00000000D+00 0.00000000D+00
 0.00000000D+00 0.00000000D+00 0.00000000D+00 0.89242583D-02 0.00000000D+00
 0.00000000D+00 0.00000000D+00 0.00000000D+00 0.00000000D+00-0.22216728D+00
-0.84591622D-02 0.00000000D+00 0.00000000D+00-0.44520166D-02 0.00000000D+00
 0.00000000D+00-0.44520166D-02 0.00000000D+00 0.00000000D+00 0.00000000D+00
-0.21809022D+00 0.00000000D+00 0.00000000D+00-0.96316295D-01 0.00000000D+00
 0.00000000D+00-0.96316295D-01 0.00000000D+00 0.00000000D+00 0.00000000D+00
 0.00000000D+00 0.11620783D-01 0.00000000D+00 0.11620783D-01 0.00000000D+00
 0.00000000D+00 0.00000000D+00 0.00000000D+00 0.00000000D+00 0.00000000D+00
 0.41363449D-02 0.00000000D+00 0.00000000D+00 0.00000000D+00 0.00000000D+00
 0.00000000D+00 0.30506954D+01 0.00000000D+00 0.00000000D+00 0.00000000D+00
 0.00000000D+00 0.00000000D+00 0.00000000D+00 0.00000000D+00 0.12653925D+01
-0.19909850D+01 0.00000000D+00 0.00000000D+00-0.98789157D+00 0.00000000D+00
 0.00000000D+00-0.98789157D+00 0.00000000D+00 0.00000000D+00 0.00000000D+00
 0.00000000D+00 0.74397469D-01 0.00000000D+00 0.74397469D-01 0.00000000D+00
 0.00000000D+00 0.00000000D+00 0.00000000D+00 0.00000000D+00 0.00000000D+00
 0.35524702D-01 0.00000000D+00 0.00000000D+00 0.00000000D+00 0.00000000D+00
 0.20548625D-02-0.45340567D-02 0.73692410D+00-0.90173002D+01-0.21441838D-02
-0.13172571D-03-0.13172571D-03 0.10909907D-01-0.84453924D-03-0.84453924D-03
 0.37777142D-01 0.53493285D-01 0.53493285D-01 0.24159086D-03-0.13885433D-03
-0.13885433D-03-0.17229230D-03-0.17229230D-03-0.84259086D-04-0.60374319D-02
-0.99657881D-03-0.99657881D-03 0.23702826D-02 0.23702826D-02 0.32645259D-02
-0.25297208D-02 0.17784205D-04 0.17784204D-04-0.12240899D-02-0.33554063D-03
-0.33554063D-03-0.12240899D-02-0.39805339D-03-0.39805339D-03-0.20093441D-03
-0.47068875D+01 0.88454570D+00 0.10799942D+01 0.10799942D+01 0.21916084D+00
 0.26629374D+00 0.26629374D+00-0.50834696D-01-0.50834696D-01-0.55306945D-01
 0.28841131D-01 0.10180371D-01 0.10180371D-01 0.91881220D-02 0.11300147D-01
 0.11300147D-01 0.91881220D-02 0.52498359D-02 0.52498359D-02-0.23129147D-02
-0.20548625D-02 0.45340567D-02-0.73692410D+00 0.90173002D+01-0.21441838D-02
-0.13172571D-03 0.13172571D-03 0.10909907D-01-0.84453924D-03 0.84453924D-03
 0.37777142D-01 0.53493285D-01-0.53493285D-01-0.24159086D-03 0.13885433D-03
 0.13885433D-03 0.17229230D-03-0.17229230D-03-0.84259086D-04 0.60374319D-02
 0.99657881D-03 0.99657881D-03-0.23702826D-02 0.23702826D-02 0.32645259D-02
-0.25297208D-02 0.17784205D-04-0.17784204D-04-0.12240899D-02-0.33554063D-03
 0.33554063D-03-0.12240899D-02-0.39805339D-03 0.39805339D-03 0.20093441D-03
 0.47068875D+01 0.88454570D+00 0.10799942D+01-0.10799942D+01-0.21916084D+00
-0.26629374D+00-0.26629374D+00 0.50834696D-01-0.50834696D-01-0.55306945D-01
 0.28841131D-01 0.10180371D-01-0.10180371D-01 0.91881220D-02 0.11300147D-01
-0.11300147D-01 0.91881220D-02 0.52498359D-02-0.52498359D-02 0.23129147D-02
 0.20548625D-02-0.45340567D-02 0.73692410D+00-0.90173002D+01-0.21441838D-02
 0.13172571D-03 0.13172571D-03 0.10909907D-01 0.84453924D-03 0.84453924D-03
 0.37777142D-01-0.53493285D-01-0.53493285D-01 0.24159086D-03-0.13885433D-03
-0.13885433D-03 0.17229230D-03 0.17229230D-03-0.84259086D-04-0.60374319D-02
-0.99657881D-03-0.99657881D-03-0.23702826D-02-0.23702826D-02 0.32645259D-02
-0.25297208D-02-0.17784205D-04-0.17784204D-04-0.12240899D-02 0.33554063D-03
 0.33554063D-03-0.12240899D-02 0.39805339D-03 0.39805339D-03-0.20093441D-03
-0.47068875D+01 0.88454570D+00-0.10799942D+01-0.10799942D+01 0.21916084D+00
 0.26629374D+00 0.26629374D+00 0.50834696D-01 0.50834696D-01-0.55306945D-01
 0.28841131D-01-0.10180371D-01-0.10180371D-01 0.91881220D-02-0.11300147D-01
-0.11300147D-01 0.91881220D-02-0.52498359D-02-0.52498359D-02-0.23129147D-02
-0.20548625D-02 0.45340567D-02-0.73692410D+00 0.90173002D+01-0.21441838D-02
 0.13172571D-03-0.13172571D-03 0.10909907D-01 0.84453924D-03-0.84453924D-03
 0.37777142D-01-0.53493285D-01 0.53493285D-01-0.24159086D-03 0.13885433D-03
 0.13885433D-03-0.17229230D-03 0.17229230D-03-0.84259086D-04 0.60374319D-02
 0.99657881D-03 0.99657881D-03 0.23702826D-02-0.23702826D-02 0.32645259D-02
-0.25297208D-02-0.17784205D-04 0.17784204D-04-0.12240899D-02 0.33554063D-03
-0.33554063D-03-0.12240899D-02 0.39805339D-03-0.39805339D-03 0.20093441D-03
 0.47068875D+01 0.88454570D+00-0.10799942D+01 0.10799942D+01-0.21916084D+00
-0.26629374D+00-0.26629374D+00-0.50834696D-01 0.50834696D-01-0.55306945D-01
 0.28841131D-01-0.10180371D-01 0.10180371D-01 0.91881220D-02-0.11300147D-01
 0.11300147D-01 0.91881220D-02-0.52498359D-02 0.52498359D-02 0.23129147D-02
    9 Alpha MO OE= 0.43971528D-01
 0.00000000D+00 0.00000000D+00 0.00000000D+00 0.00000000D+00 0.00000000D+00
 0.00000000D+00 0.00000000D+00 0.10085918D-01 0.00000000D+00 0.00000000D+00
-0.87228925D-01 0.00000000D+00 0.00000000D+00-0.95716941D+00 0.00000000D+00
 0.00000000D+00 0.10612317D+02 0.00000000D+00 0.00000000D+00 0.00000000D+00
 0.58412486D-02 0.00000000D+00 0.00000000D+00 0.00000000D+00 0.00000000D+00
 0.00000000D+00 0.89242583D-02 0.00000000D+00 0.00000000D+00 0.00000000D+00
 0.00000000D+00 0.00000000D+00-0.22216728D+00 0.00000000D+00 0.00000000D+00
 0.00000000D+00 0.00000000D+00-0.84591622D-02 0.00000000D+00 0.00000000D+00
-0.44520166D-02 0.00000000D+00 0.00000000D+00-0.44520166D-02 0.00000000D+00
 0.00000000D+00 0.00000000D+00-0.21809022D+00 0.00000000D+00 0.00000000D+00
-0.96316295D-01 0.00000000D+00 0.00000000D+00-0.96316295D-01 0.00000000D+00
 0.00000000D+00 0.00000000D+00 0.00000000D+00 0.00000000D+00 0.00000000D+00
 0.00000000D+00 0.41363449D-02 0.00000000D+00 0.11620783D-01 0.00000000D+00
 0.00000000D+00 0.00000000D+00 0.00000000D+00 0.11620783D-01 0.00000000D+00
 0.00000000D+00 0.00000000D+00 0.00000000D+00 0.30506954D+01 0.00000000D+00
 0.00000000D+00 0.00000000D+00 0.12653925D+01 0.00000000D+00 0.00000000D+00
 0.00000000D+00 0.00000000D+00-0.19909850D+01 0.00000000D+00 0.00000000D+00
-0.98789157D+00 0.00000000D+00 0.00000000D+00-0.98789157D+00 0.00000000D+00
 0.00000000D+00 0.00000000D+00 0.00000000D+00 0.00000000D+00 0.00000000D+00
 0.00000000D+00 0.35524702D-01 0.00000000D+00 0.74397469D-01 0.00000000D+00
 0.00000000D+00 0.00000000D+00 0.00000000D+00 0.74397469D-01 0.00000000D+00
 0.20548625D-02-0.45340567D-02 0.73692410D+00-0.90173002D+01-0.13172572D-03
-0.13172572D-03-0.21441838D-02-0.84453922D-03-0.84453922D-03 0.10909907D-01
 0.53493285D-01 0.53493285D-01 0.37777142D-01-0.13885433D-03-0.13885433D-03
 0.24159086D-03-0.84259086D-04-0.17229230D-03-0.17229230D-03-0.99657881D-03
-0.99657881D-03-0.60374319D-02 0.32645259D-02 0.23702826D-02 0.23702826D-02
 0.17784201D-04 0.17784202D-04-0.25297208D-02-0.39805339D-03-0.39805339D-03
-0.12240899D-02-0.33554063D-03-0.33554063D-03-0.12240899D-02-0.20093441D-03
-0.47068875D+01 0.10799942D+01 0.10799942D+01 0.88454570D+00 0.26629374D+00
 0.26629374D+00 0.21916084D+00-0.55306945D-01-0.50834696D-01-0.50834696D-01
 0.10180371D-01 0.10180371D-01 0.28841131D-01 0.52498359D-02 0.52498359D-02
 0.91881220D-02 0.11300147D-01 0.11300147D-01 0.91881220D-02-0.23129147D-02
 0.20548625D-02-0.45340567D-02 0.73692410D+00-0.90173002D+01 0.13172572D-03
 0.13172572D-03-0.21441838D-02 0.84453922D-03 0.84453922D-03 0.10909907D-01
-0.53493285D-01-0.53493285D-01 0.37777142D-01-0.13885433D-03-0.13885433D-03
 0.24159086D-03-0.84259086D-04 0.17229230D-03 0.17229230D-03-0.99657881D-03
-0.99657881D-03-0.60374319D-02 0.32645259D-02-0.23702826D-02-0.23702826D-02
-0.17784201D-04-0.17784202D-04-0.25297208D-02 0.39805339D-03 0.39805339D-03
-0.12240899D-02 0.33554063D-03 0.33554063D-03-0.12240899D-02-0.20093441D-03
-0.47068875D+01-0.10799942D+01-0.10799942D+01 0.88454570D+00 0.26629374D+00
 0.26629374D+00 0.21916084D+00-0.55306945D-01 0.50834696D-01 0.50834696D-01
-0.10180371D-01-0.10180371D-01 0.28841131D-01-0.52498359D-02-0.52498359D-02
 0.91881220D-02-0.11300147D-01-0.11300147D-01 0.91881220D-02-0.23129147D-02
-0.20548625D-02 0.45340567D-02-0.73692410D+00 0.90173002D+01 0.13172572D-03
-0.13172572D-03-0.21441838D-02 0.84453922D-03-0.84453922D-03 0.10909907D-01
-0.53493285D-01 0.53493285D-01 0.37777142D-01 0.13885433D-03 0.13885433D-03
-0.24159086D-03-0.84259086D-04-0.17229230D-03 0.17229230D-03 0.99657881D-03
 0.99657881D-03 0.60374319D-02 0.32645259D-02 0.23702826D-02-0.23702826D-02
-0.17784201D-04 0.17784202D-04-0.25297208D-02 0.39805339D-03-0.39805339D-03
-0.12240899D-02 0.33554063D-03-0.33554063D-03-0.12240899D-02 0.20093441D-03
 0.47068875D+01-0.10799942D+01 0.10799942D+01 0.88454570D+00-0.26629374D+00
-0.26629374D+00-0.21916084D+00-0.55306945D-01-0.50834696D-01 0.50834696D-01
-0.10180371D-01 0.10180371D-01 0.28841131D-01-0.52498359D-02 0.52498359D-02
 0.91881220D-02-0.11300147D-01 0.11300147D-01 0.91881220D-02 0.23129147D-02
-0.20548625D-02 0.45340567D-02-0.73692410D+00 0.90173002D+01-0.13172572D-03
 0.13172572D-03-0.21441838D-02-0.84453922D-03 0.84453922D-03 0.10909907D-01
 0.53493285D-01-0.53493285D-01 0.37777142D-01 0.13885433D-03 0.13885433D-03
-0.24159086D-03-0.84259086D-04 0.17229230D-03-0.17229230D-03 0.99657881D-03
 0.99657881D-03 0.60374319D-02 0.32645259D-02-0.23702826D-02 0.23702826D-02
 0.17784201D-04-0.17784202D-04-0.25297208D-02-0.39805339D-03 0.39805339D-03
-0.12240899D-02-0.33554063D-03 0.33554063D-03-0.12240899D-02 0.20093441D-03
 0.47068875D+01 0.10799942D+01-0.10799942D+01 0.88454570D+00-0.26629374D+00
-0.26629374D+00-0.21916084D+00-0.55306945D-01 0.50834696D-01-0.50834696D-01
 0.10180371D-01-0.10180371D-01 0.28841131D-01 0.52498359D-02-0.52498359D-02
 0.91881220D-02 0.11300147D-01-0.11300147D-01 0.91881220D-02 0.23129147D-02
   10 Alpha MO OE= 0.10271026D+00
 0.00000000D+00 0.00000000D+00 0.00000000D+00 0.00000000D+00 0.00000000D+00
-0.14173976D-01 0.00000000D+00 0.00000000D+00 0.11285049D-01 0.00000000D+00
 0.00000000D+00-0.19620730D+01 0.00000000D+00 0.00000000D+00 0.12711098D+02
 0.00000000D+00 0.00000000D+00 0.00000000D+00 0.00000000D+00 0.00000000D+00
 0.00000000D+00 0.00000000D+00 0.25321735D-02 0.00000000D+00 0.00000000D+00
 0.00000000D+00 0.00000000D+00 0.00000000D+00 0.90467669D-01 0.00000000D+00
 0.00000000D+00 0.00000000D+00 0.00000000D+00 0.00000000D+00-0.11356116D+01
-0.11014759D-02 0.00000000D+00 0.00000000D+00-0.54124515D-02 0.00000000D+00
 0.00000000D+00-0.54124515D-02 0.00000000D+00 0.00000000D+00 0.00000000D+00
 0.12310936D-01 0.00000000D+00 0.00000000D+00 0.70988012D-02 0.00000000D+00
 0.00000000D+00 0.70988012D-02 0.00000000D+00 0.00000000D+00 0.00000000D+00
 0.00000000D+00 0.12963898D-01 0.00000000D+00 0.12963898D-01 0.00000000D+00
 0.00000000D+00 0.00000000D+00 0.00000000D+00 0.00000000D+00 0.00000000D+00
-0.32439367D-02 0.00000000D+00 0.00000000D+00 0.00000000D+00 0.00000000D+00
 0.00000000D+00 0.66374525D+01 0.00000000D+00 0.00000000D+00 0.00000000D+00
 0.00000000D+00 0.00000000D+00 0.00000000D+00 0.00000000D+00 0.12684287D+01
-0.21044162D+01 0.00000000D+00 0.00000000D+00-0.12984121D+01 0.00000000D+00
 0.00000000D+00-0.12984121D+01 0.00000000D+00 0.00000000D+00 0.00000000D+00
 0.00000000D+00 0.21573179D+00 0.00000000D+00 0.21573179D+00 0.00000000D+00
 0.00000000D+00 0.00000000D+00 0.00000000D+00 0.00000000D+00 0.00000000D+00
 0.11729622D+00 0.00000000D+00 0.00000000D+00 0.00000000D+00 0.00000000D+00
-0.37440572D-02-0.98343374D-01 0.19828400D+01-0.98988575D+01 0.17766372D-01
 0.67523822D-02 0.67523822D-02-0.10132768D+00-0.44637782D-01-0.44637782D-01
-0.74898651D-01 0.77352549D-01 0.77352549D-01 0.78579547D-03 0.11439820D-02
 0.11439820D-02-0.44365072D-03-0.44365072D-03 0.88706547D-03-0.18777582D-01
-0.19345928D-01-0.19345928D-01 0.11696845D-01 0.11696845D-01 0.18843279D-02
 0.18859283D-01 0.64321014D-02 0.64321014D-02 0.82042160D-02 0.33482236D-02
 0.33482236D-02 0.82042160D-02 0.23220314D-02 0.23220314D-02-0.86969345D-04
-0.55363488D+01-0.23625949D+00 0.91589003D+00 0.91589003D+00 0.62716962D+00
 0.51919667D+00 0.51919667D+00 0.11598997D+00 0.11598997D+00-0.64230795D-01
-0.13442437D+00-0.59600083D-01-0.59600083D-01-0.77085452D-01-0.35527665D-01
-0.35527665D-01-0.77085452D-01-0.24897013D-01-0.24897013D-01-0.16580597D-01
 0.37440572D-02 0.98343374D-01-0.19828400D+01 0.98988575D+01 0.17766372D-01
 0.67523822D-02-0.67523822D-02-0.10132768D+00-0.44637782D-01 0.44637782D-01
-0.74898651D-01 0.77352549D-01-0.77352549D-01-0.78579547D-03-0.11439820D-02
-0.11439820D-02 0.44365072D-03-0.44365072D-03 0.88706547D-03 0.18777582D-01
 0.19345928D-01 0.19345928D-01-0.11696845D-01 0.11696845D-01 0.18843279D-02
 0.18859283D-01 0.64321014D-02-0.64321014D-02 0.82042160D-02 0.33482236D-02
-0.33482236D-02 0.82042160D-02 0.23220314D-02-0.23220314D-02 0.86969345D-04
 0.55363488D+01-0.23625949D+00 0.91589003D+00-0.91589003D+00-0.62716962D+00
-0.51919667D+00-0.51919667D+00-0.11598997D+00 0.11598997D+00-0.64230795D-01
-0.13442437D+00-0.59600083D-01 0.59600083D-01-0.77085452D-01-0.35527665D-01
 0.35527665D-01-0.77085452D-01-0.24897013D-01 0.24897013D-01 0.16580597D-01
-0.37440572D-02-0.98343374D-01 0.19828400D+01-0.98988575D+01 0.17766372D-01
-0.67523822D-02-0.67523822D-02-0.10132768D+00 0.44637782D-01 0.44637782D-01
-0.74898651D-01-0.77352549D-01-0.77352549D-01 0.78579547D-03 0.11439820D-02
 0.11439820D-02 0.44365072D-03 0.44365072D-03 0.88706547D-03-0.18777582D-01
-0.19345928D-01-0.19345928D-01-0.11696845D-01-0.11696845D-01 0.18843279D-02
 0.18859283D-01-0.64321014D-02-0.64321014D-02 0.82042160D-02-0.33482236D-02
-0.33482236D-02 0.82042160D-02-0.23220314D-02-0.23220314D-02-0.86969345D-04
-0.55363488D+01-0.23625949D+00-0.91589003D+00-0.91589003D+00 0.62716962D+00
 0.51919667D+00 0.51919667D+00-0.11598997D+00-0.11598997D+00-0.64230795D-01
-0.13442437D+00 0.59600083D-01 0.59600083D-01-0.77085452D-01 0.35527665D-01
 0.35527665D-01-0.77085452D-01 0.24897013D-01 0.24897013D-01-0.16580597D-01
 0.37440572D-02 0.98343374D-01-0.19828400D+01 0.98988575D+01 0.17766372D-01
-0.67523822D-02 0.67523822D-02-0.10132768D+00 0.44637782D-01-0.44637782D-01
-0.74898651D-01-0.77352549D-01 0.77352549D-01-0.78579547D-03-0.11439820D-02
-0.11439820D-02-0.44365072D-03 0.44365072D-03 0.88706547D-03 0.18777582D-01
 0.19345928D-01 0.19345928D-01 0.11696845D-01-0.11696845D-01 0.18843279D-02
 0.18859283D-01-0.64321014D-02 0.64321014D-02 0.82042160D-02-0.33482236D-02
 0.33482236D-02 0.82042160D-02-0.23220314D-02 0.23220314D-02 0.86969345D-04
 0.55363488D+01-0.23625949D+00-0.91589003D+00 0.91589003D+00-0.62716962D+00
-0.51919667D+00-0.51919667D+00 0.11598997D+00-0.11598997D+00-0.64230795D-01
-0.13442437D+00 0.59600083D-01-0.59600083D-01-0.77085452D-01 0.35527665D-01
-0.35527665D-01-0.77085452D-01 0.24897013D-01-0.24897013D-01 0.16580597D-01
   11 Alpha MO OE= 0.10271026D+00
 0.00000000D+00 0.00000000D+00 0.00000000D+00 0.00000000D+00 0.00000000D+00
 0.00000000D+00-0.14173976D-01 0.00000000D+00 0.00000000D+00 0.11285049D-01
 0.00000000D+00 0.00000000D+00-0.19620730D+01 0.00000000D+00 0.00000000D+00
 0.12711098D+02 0.00000000D+00 0.00000000D+00 0.00000000D+00 0.00000000D+00
 0.00000000D+00 0.25321735D-02 0.00000000D+00 0.00000000D+00 0.00000000D+00
 0.00000000D+00 0.00000000D+00 0.90467669D-01 0.00000000D+00 0.00000000D+00
 0.00000000D+00 0.00000000D+00 0.00000000D+00-0.11356116D+01 0.00000000D+00
 0.00000000D+00-0.11014759D-02 0.00000000D+00 0.00000000D+00-0.54124515D-02
 0.00000000D+00 0.00000000D+00-0.54124515D-02 0.00000000D+00 0.00000000D+00
 0.00000000D+00 0.12310936D-01 0.00000000D+00 0.00000000D+00 0.70988012D-02
 0.00000000D+00 0.00000000D+00 0.70988012D-02 0.00000000D+00 0.00000000D+00
 0.00000000D+00 0.00000000D+00 0.00000000D+00 0.00000000D+00 0.00000000D+00
 0.12963898D-01 0.00000000D+00-0.32439367D-02 0.00000000D+00 0.00000000D+00
 0.00000000D+00 0.00000000D+00 0.12963898D-01 0.00000000D+00 0.00000000D+00
 0.00000000D+00 0.00000000D+00 0.66374525D+01 0.00000000D+00 0.00000000D+00
 0.00000000D+00 0.00000000D+00 0.00000000D+00 0.12684287D+01 0.00000000D+00
 0.00000000D+00-0.21044162D+01 0.00000000D+00 0.00000000D+00-0.12984121D+01
 0.00000000D+00 0.00000000D+00-0.12984121D+01 0.00000000D+00 0.00000000D+00
 0.00000000D+00 0.00000000D+00 0.00000000D+00 0.00000000D+00 0.00000000D+00
 0.21573179D+00 0.00000000D+00 0.11729622D+00 0.00000000D+00 0.00000000D+00
 0.00000000D+00 0.00000000D+00 0.21573179D+00 0.00000000D+00 0.00000000D+00
-0.37440572D-02-0.98343374D-01 0.19828400D+01-0.98988575D+01 0.67523822D-02
 0.17766372D-01 0.67523822D-02-0.44637782D-01-0.10132768D+00-0.44637782D-01
 0.77352549D-01-0.74898651D-01 0.77352549D-01 0.11439820D-02 0.78579547D-03
 0.11439820D-02-0.44365072D-03 0.88706547D-03-0.44365072D-03-0.19345928D-01
-0.18777582D-01-0.19345928D-01 0.11696845D-01 0.18843279D-02 0.11696845D-01
 0.64321014D-02 0.18859283D-01 0.64321014D-02 0.33482236D-02 0.82042160D-02
 0.23220314D-02 0.23220314D-02 0.82042160D-02 0.33482236D-02-0.86969345D-04
-0.55363488D+01 0.91589003D+00-0.23625949D+00 0.91589003D+00 0.51919667D+00
 0.62716962D+00 0.51919667D+00 0.11598997D+00-0.64230795D-01 0.11598997D+00
-0.59600083D-01-0.13442437D+00-0.59600083D-01-0.35527665D-01-0.77085452D-01
-0.24897013D-01-0.24897013D-01-0.77085452D-01-0.35527665D-01-0.16580597D-01
[...]
  322 Alpha MO OE= 0.34087395D+02
 0.00000000D+00 0.00000000D+00 0.00000000D+00 0.00000000D+00 0.00000000D+00
 0.10538670D+00 0.00000000D+00 0.00000000D+00-0.90753625D+01 0.00000000D+00
 0.00000000D+00 0.53427678D+02 0.00000000D+00 0.00000000D+00-0.13580192D+02
 0.00000000D+00 0.00000000D+00 0.00000000D+00 0.00000000D+00 0.00000000D+00
 0.00000000D+00 0.00000000D+00-0.25982880D+00 0.00000000D+00 0.00000000D+00
 0.00000000D+00 0.00000000D+00 0.00000000D+00 0.13469560D+01 0.00000000D+00
 0.00000000D+00 0.00000000D+00 0.00000000D+00 0.00000000D+00 0.19829832D+02
-0.35599790D+00 0.00000000D+00 0.00000000D+00 0.19001954D+00 0.00000000D+00
 0.00000000D+00 0.19001954D+00 0.00000000D+00 0.00000000D+00 0.00000000D+00
-0.13825037D+02 0.00000000D+00 0.00000000D+00-0.48069235D+01 0.00000000D+00
 0.00000000D+00-0.48069235D+01 0.00000000D+00 0.00000000D+00 0.00000000D+00
 0.00000000D+00-0.63997280D+00 0.00000000D+00-0.63997280D+00 0.00000000D+00
 0.00000000D+00 0.00000000D+00 0.00000000D+00 0.00000000D+00 0.00000000D+00
 0.21608887D+00 0.00000000D+00 0.00000000D+00 0.00000000D+00 0.00000000D+00
 0.00000000D+00-0.31540619D+00 0.00000000D+00 0.00000000D+00 0.00000000D+00
 0.00000000D+00 0.00000000D+00 0.00000000D+00 0.00000000D+00-0.25398904D+00
 0.60857140D+01 0.00000000D+00 0.00000000D+00 0.60249165D+01 0.00000000D+00
 0.00000000D+00 0.60249165D+01 0.00000000D+00 0.00000000D+00 0.00000000D+00
 0.00000000D+00-0.32099943D+01 0.00000000D+00-0.32099943D+01 0.00000000D+00
 0.00000000D+00 0.00000000D+00 0.00000000D+00 0.00000000D+00 0.00000000D+00
-0.12703818D+01 0.00000000D+00 0.00000000D+00 0.00000000D+00 0.00000000D+00
 0.44403016D+01-0.76661601D+01-0.33995451D+02 0.15430692D+01-0.81358359D+00
-0.47187027D+00-0.47187027D+00 0.43779823D+01 0.28977756D+01 0.28977756D+01
-0.14302066D+01-0.12021851D+01-0.12021851D+01 0.28710890D+01 0.28842176D+01
 0.28842176D+01-0.99273444D-01-0.99273444D-01-0.14449198D+00 0.48476201D+01
 0.47330138D+01 0.47330138D+01-0.23166079D+00-0.23166079D+00 0.84709434D-01
-0.97976654D+00-0.49520386D+00-0.49520386D+00-0.38830118D+00-0.23296987D+00
-0.23296987D+00-0.38830118D+00-0.18387326D+00-0.18387326D+00 0.52576465D-01
 0.14603472D+00 0.84449860D+00-0.26311113D+00-0.26311113D+00 0.71403826D+00
 0.56422030D+00 0.56422030D+00-0.31072777D+00-0.31072777D+00 0.16011789D-01
 0.27185543D+01 0.23403303D+01 0.23403303D+01 0.13505104D+01 0.95241516D+00
 0.95241516D+00 0.13505104D+01 0.89256365D+00 0.89256365D+00 0.50032147D-02
-0.44403016D+01 0.76661601D+01 0.33995451D+02-0.15430692D+01-0.81358359D+00
-0.47187027D+00 0.47187027D+00 0.43779823D+01 0.28977756D+01-0.28977756D+01
-0.14302066D+01-0.12021851D+01 0.12021851D+01-0.28710890D+01-0.28842176D+01
-0.28842176D+01 0.99273444D-01-0.99273444D-01-0.14449198D+00-0.48476201D+01
-0.47330138D+01-0.47330138D+01 0.23166079D+00-0.23166079D+00 0.84709434D-01
-0.97976654D+00-0.49520386D+00 0.49520386D+00-0.38830118D+00-0.23296987D+00
 0.23296987D+00-0.38830118D+00-0.18387326D+00 0.18387326D+00-0.52576465D-01
-0.14603472D+00 0.84449860D+00-0.26311113D+00 0.26311113D+00-0.71403826D+00
-0.56422030D+00-0.56422030D+00 0.31072777D+00-0.31072777D+00 0.16011789D-01
 0.27185543D+01 0.23403303D+01-0.23403303D+01 0.13505104D+01 0.95241516D+00
-0.95241516D+00 0.13505104D+01 0.89256365D+00-0.89256365D+00-0.50032147D-02
 0.44403016D+01-0.76661601D+01-0.33995451D+02 0.15430692D+01-0.81358359D+00
 0.47187027D+00 0.47187027D+00 0.43779823D+01-0.28977756D+01-0.28977756D+01
-0.14302066D+01 0.12021851D+01 0.12021851D+01 0.28710890D+01 0.28842176D+01
 0.28842176D+01 0.99273444D-01 0.99273444D-01-0.14449198D+00 0.48476201D+01
 0.47330138D+01 0.47330138D+01 0.23166079D+00 0.23166079D+00 0.84709434D-01
-0.97976654D+00 0.49520386D+00 0.49520386D+00-0.38830118D+00 0.23296987D+00
 0.23296987D+00-0.38830118D+00 0.18387326D+00 0.18387326D+00 0.52576465D-01
 0.14603472D+00 0.84449860D+00 0.26311113D+00 0.26311113D+00 0.71403826D+00
 0.56422030D+00 0.56422030D+00 0.31072777D+00 0.31072777D+00 0.16011789D-01
 0.27185543D+01-0.23403303D+01-0.23403303D+01 0.13505104D+01-0.95241516D+00
-0.95241516D+00 0.13505104D+01-0.89256365D+00-0.89256365D+00 0.50032147D-02
-0.44403016D+01 0.76661601D+01 0.33995451D+02-0.15430692D+01-0.81358359D+00
 0.47187027D+00-0.47187027D+00 0.43779823D+01-0.28977756D+01 0.28977756D+01
-0.14302066D+01 0.12021851D+01-0.12021851D+01-0.28710890D+01-0.28842176D+01
-0.28842176D+01-0.99273444D-01 0.99273444D-01-0.14449198D+00-0.48476201D+01
-0.47330138D+01-0.47330138D+01-0.23166079D+00 0.23166079D+00 0.84709434D-01
-0.97976654D+00 0.49520386D+00-0.49520386D+00-0.38830118D+00 0.23296987D+00
-0.23296987D+00-0.38830118D+00 0.18387326D+00-0.18387326D+00-0.52576465D-01
-0.14603472D+00 0.84449860D+00 0.26311113D+00-0.26311113D+00-0.71403826D+00
-0.56422030D+00-0.56422030D+00-0.31072777D+00 0.31072777D+00 0.16011789D-01
 0.27185543D+01-0.23403303D+01 0.23403303D+01 0.13505104D+01-0.95241516D+00
 0.95241516D+00 0.13505104D+01-0.89256365D+00 0.89256365D+00-0.50032147D-02
  323 Alpha MO OE= 0.34087395D+02
 0.00000000D+00 0.00000000D+00 0.00000000D+00 0.00000000D+00 0.00000000D+00
 0.00000000D+00 0.10538670D+00 0.00000000D+00 0.00000000D+00-0.90753625D+01
 0.00000000D+00 0.00000000D+00 0.53427678D+02 0.00000000D+00 0.00000000D+00
-0.13580192D+02 0.00000000D+00 0.00000000D+00 0.00000000D+00 0.00000000D+00
 0.00000000D+00-0.25982880D+00 0.00000000D+00 0.00000000D+00 0.00000000D+00
 0.00000000D+00 0.00000000D+00 0.13469560D+01 0.00000000D+00 0.00000000D+00
 0.00000000D+00 0.00000000D+00 0.00000000D+00 0.19829832D+02 0.00000000D+00
 0.00000000D+00-0.35599790D+00 0.00000000D+00 0.00000000D+00 0.19001954D+00
 0.00000000D+00 0.00000000D+00 0.19001954D+00 0.00000000D+00 0.00000000D+00
 0.00000000D+00-0.13825037D+02 0.00000000D+00 0.00000000D+00-0.48069235D+01
 0.00000000D+00 0.00000000D+00-0.48069235D+01 0.00000000D+00 0.00000000D+00
 0.00000000D+00 0.00000000D+00 0.00000000D+00 0.00000000D+00 0.00000000D+00
-0.63997280D+00 0.00000000D+00 0.21608887D+00 0.00000000D+00 0.00000000D+00
 0.00000000D+00 0.00000000D+00-0.63997280D+00 0.00000000D+00 0.00000000D+00
 0.00000000D+00 0.00000000D+00-0.31540619D+00 0.00000000D+00 0.00000000D+00
 0.00000000D+00 0.00000000D+00 0.00000000D+00-0.25398904D+00 0.00000000D+00
 0.00000000D+00 0.60857140D+01 0.00000000D+00 0.00000000D+00 0.60249165D+01
 0.00000000D+00 0.00000000D+00 0.60249165D+01 0.00000000D+00 0.00000000D+00
 0.00000000D+00 0.00000000D+00 0.00000000D+00 0.00000000D+00 0.00000000D+00
-0.32099943D+01 0.00000000D+00-0.12703818D+01 0.00000000D+00 0.00000000D+00
 0.00000000D+00 0.00000000D+00-0.32099943D+01 0.00000000D+00 0.00000000D+00
 0.44403016D+01-0.76661601D+01-0.33995451D+02 0.15430692D+01-0.47187027D+00
-0.81358359D+00-0.47187027D+00 0.28977756D+01 0.43779823D+01 0.28977756D+01
-0.12021851D+01-0.14302066D+01-0.12021851D+01 0.28842176D+01 0.28710890D+01
 0.28842176D+01-0.99273444D-01-0.14449198D+00-0.99273444D-01 0.47330138D+01
 0.48476201D+01 0.47330138D+01-0.23166079D+00 0.84709434D-01-0.23166079D+00
-0.49520386D+00-0.97976654D+00-0.49520386D+00-0.23296987D+00-0.38830118D+00
-0.18387326D+00-0.18387326D+00-0.38830118D+00-0.23296987D+00 0.52576465D-01
 0.14603472D+00-0.26311113D+00 0.84449860D+00-0.26311113D+00 0.56422030D+00
 0.71403826D+00 0.56422030D+00-0.31072777D+00 0.16011789D-01-0.31072777D+00
 0.23403303D+01 0.27185543D+01 0.23403303D+01 0.95241516D+00 0.13505104D+01
 0.89256365D+00 0.89256365D+00 0.13505104D+01 0.95241516D+00 0.50032147D-02
-0.44403016D+01 0.76661601D+01 0.33995451D+02-0.15430692D+01-0.47187027D+00
-0.81358359D+00 0.47187027D+00 0.28977756D+01 0.43779823D+01-0.28977756D+01
-0.12021851D+01-0.14302066D+01 0.12021851D+01-0.28842176D+01-0.28710890D+01
-0.28842176D+01 0.99273444D-01-0.14449198D+00-0.99273444D-01-0.47330138D+01
-0.48476201D+01-0.47330138D+01 0.23166079D+00 0.84709434D-01-0.23166079D+00
-0.49520386D+00-0.97976654D+00 0.49520386D+00-0.23296987D+00-0.38830118D+00
 0.18387326D+00-0.18387326D+00-0.38830118D+00 0.23296987D+00-0.52576465D-01
-0.14603472D+00-0.26311113D+00 0.84449860D+00 0.26311113D+00-0.56422030D+00
-0.71403826D+00-0.56422030D+00 0.31072777D+00 0.16011789D-01-0.31072777D+00
 0.23403303D+01 0.27185543D+01-0.23403303D+01 0.95241516D+00 0.13505104D+01
-0.89256365D+00 0.89256365D+00 0.13505104D+01-0.95241516D+00-0.50032147D-02
-0.44403016D+01 0.76661601D+01 0.33995451D+02-0.15430692D+01 0.47187027D+00
-0.81358359D+00-0.47187027D+00-0.28977756D+01 0.43779823D+01 0.28977756D+01
 0.12021851D+01-0.14302066D+01-0.12021851D+01-0.28842176D+01-0.28710890D+01
-0.28842176D+01-0.99273444D-01-0.14449198D+00 0.99273444D-01-0.47330138D+01
-0.48476201D+01-0.47330138D+01-0.23166079D+00 0.84709434D-01 0.23166079D+00
 0.49520386D+00-0.97976654D+00-0.49520386D+00 0.23296987D+00-0.38830118D+00
-0.18387326D+00 0.18387326D+00-0.38830118D+00-0.23296987D+00-0.52576465D-01
-0.14603472D+00 0.26311113D+00 0.84449860D+00-0.26311113D+00-0.56422030D+00
-0.71403826D+00-0.56422030D+00-0.31072777D+00 0.16011789D-01 0.31072777D+00
-0.23403303D+01 0.27185543D+01 0.23403303D+01-0.95241516D+00 0.13505104D+01
 0.89256365D+00-0.89256365D+00 0.13505104D+01 0.95241516D+00-0.50032147D-02
 0.44403016D+01-0.76661601D+01-0.33995451D+02 0.15430692D+01 0.47187027D+00
-0.81358359D+00 0.47187027D+00-0.28977756D+01 0.43779823D+01-0.28977756D+01
 0.12021851D+01-0.14302066D+01 0.12021851D+01 0.28842176D+01 0.28710890D+01
 0.28842176D+01 0.99273444D-01-0.14449198D+00 0.99273444D-01 0.47330138D+01
 0.48476201D+01 0.47330138D+01 0.23166079D+00 0.84709434D-01 0.23166079D+00
 0.49520386D+00-0.97976654D+00 0.49520386D+00 0.23296987D+00-0.38830118D+00
 0.18387326D+00 0.18387326D+00-0.38830118D+00 0.23296987D+00 0.52576465D-01
 0.14603472D+00 0.26311113D+00 0.84449860D+00 0.26311113D+00 0.56422030D+00
 0.71403826D+00 0.56422030D+00 0.31072777D+00 0.16011789D-01 0.31072777D+00
-0.23403303D+01 0.27185543D+01-0.23403303D+01-0.95241516D+00 0.13505104D+01
-0.89256365D+00-0.89256365D+00 0.13505104D+01-0.95241516D+00 0.50032147D-02
  324 Alpha MO OE= 0.36222587D+02
 0.32626449D+00 0.51312546D+00-0.38041522D+02 0.67656029D+02-0.21497960D+02
 0.00000000D+00 0.00000000D+00 0.00000000D+00 0.00000000D+00 0.00000000D+00
 0.00000000D+00 0.00000000D+00 0.00000000D+00 0.00000000D+00 0.00000000D+00
 0.00000000D+00 0.00000000D+00-0.79153614D+00-0.79153614D+00-0.79153614D+00
 0.00000000D+00 0.00000000D+00 0.00000000D+00-0.44125356D+01-0.44125356D+01
-0.44125356D+01 0.00000000D+00 0.00000000D+00 0.00000000D+00-0.25833413D+02
-0.25833413D+02-0.25833413D+02 0.00000000D+00 0.00000000D+00 0.00000000D+00
 0.00000000D+00 0.00000000D+00 0.00000000D+00 0.00000000D+00 0.00000000D+00
 0.00000000D+00 0.00000000D+00 0.00000000D+00 0.00000000D+00 0.13207743D+00
 0.00000000D+00 0.00000000D+00 0.00000000D+00 0.00000000D+00 0.00000000D+00
 0.00000000D+00 0.00000000D+00 0.00000000D+00 0.00000000D+00 0.14483722D+02
-0.18484676D+01 0.00000000D+00-0.57574214D+00 0.00000000D+00-0.18484676D+01
 0.00000000D+00 0.00000000D+00 0.00000000D+00 0.00000000D+00-0.57574214D+00
 0.00000000D+00-0.57574214D+00 0.00000000D+00 0.00000000D+00-0.18484676D+01
 0.82123532D+01 0.00000000D+00 0.00000000D+00 0.00000000D+00-0.49534899D+01
-0.49534899D+01-0.49534899D+01 0.00000000D+00 0.00000000D+00 0.00000000D+00
 0.00000000D+00 0.00000000D+00 0.00000000D+00 0.00000000D+00 0.00000000D+00
 0.00000000D+00 0.00000000D+00 0.00000000D+00 0.00000000D+00-0.42832337D+01
-0.87545603D+01 0.00000000D+00-0.22655182D+01 0.00000000D+00-0.87545603D+01
 0.00000000D+00 0.00000000D+00 0.00000000D+00 0.00000000D+00-0.22655182D+01
 0.00000000D+00-0.22655182D+01 0.00000000D+00 0.00000000D+00-0.87545603D+01
-0.46382250D+01-0.12096198D+02 0.48142286D+02 0.79623055D+01-0.49783478D+00
-0.49783478D+00-0.49783478D+00 0.27657392D+01 0.27657392D+01 0.27657392D+01
 0.10314722D+02 0.10314722D+02 0.10314722D+02-0.30471532D+01-0.30471532D+01
-0.30471532D+01 0.47799739D-01 0.47799739D-01 0.47799739D-01-0.10748348D+02
-0.10748348D+02-0.10748348D+02-0.21155751D+01-0.21155751D+01-0.21155751D+01
-0.66978956D+00-0.66978956D+00-0.66978956D+00-0.23144641D+00-0.23144641D+00
-0.23144641D+00-0.23144641D+00-0.23144641D+00-0.23144641D+00 0.77103697D-01
-0.23543293D+00-0.77493299D+00-0.77493299D+00-0.77493299D+00-0.46595082D+00
-0.46595082D+00-0.46595082D+00 0.16623345D-01 0.16623345D-01 0.16623345D-01
-0.72512048D+01-0.72512048D+01-0.72512048D+01-0.30140982D+01-0.30140982D+01
-0.30140982D+01-0.30140982D+01-0.30140982D+01-0.30140982D+01 0.42713323D+00
-0.46382250D+01-0.12096198D+02 0.48142286D+02 0.79623055D+01 0.49783478D+00
 0.49783478D+00-0.49783478D+00-0.27657392D+01-0.27657392D+01 0.27657392D+01
-0.10314722D+02-0.10314722D+02 0.10314722D+02-0.30471532D+01-0.30471532D+01
-0.30471532D+01 0.47799739D-01-0.47799739D-01-0.47799739D-01-0.10748348D+02
-0.10748348D+02-0.10748348D+02-0.21155751D+01 0.21155751D+01 0.21155751D+01
 0.66978956D+00 0.66978956D+00-0.66978956D+00 0.23144641D+00 0.23144641D+00
-0.23144641D+00 0.23144641D+00 0.23144641D+00-0.23144641D+00 0.77103697D-01
-0.23543293D+00 0.77493299D+00 0.77493299D+00-0.77493299D+00-0.46595082D+00
-0.46595082D+00-0.46595082D+00 0.16623345D-01-0.16623345D-01-0.16623345D-01
 0.72512048D+01 0.72512048D+01-0.72512048D+01 0.30140982D+01 0.30140982D+01
-0.30140982D+01 0.30140982D+01 0.30140982D+01-0.30140982D+01 0.42713323D+00
-0.46382250D+01-0.12096198D+02 0.48142286D+02 0.79623055D+01-0.49783478D+00
 0.49783478D+00 0.49783478D+00 0.27657392D+01-0.27657392D+01-0.27657392D+01
 0.10314722D+02-0.10314722D+02-0.10314722D+02-0.30471532D+01-0.30471532D+01
-0.30471532D+01-0.47799739D-01-0.47799739D-01 0.47799739D-01-0.10748348D+02
-0.10748348D+02-0.10748348D+02 0.21155751D+01 0.21155751D+01-0.21155751D+01
-0.66978956D+00 0.66978956D+00 0.66978956D+00-0.23144641D+00 0.23144641D+00
 0.23144641D+00-0.23144641D+00 0.23144641D+00 0.23144641D+00 0.77103697D-01
-0.23543293D+00-0.77493299D+00 0.77493299D+00 0.77493299D+00-0.46595082D+00
-0.46595082D+00-0.46595082D+00-0.16623345D-01-0.16623345D-01 0.16623345D-01
-0.72512048D+01 0.72512048D+01 0.72512048D+01-0.30140982D+01 0.30140982D+01
 0.30140982D+01-0.30140982D+01 0.30140982D+01 0.30140982D+01 0.42713323D+00
-0.46382250D+01-0.12096198D+02 0.48142286D+02 0.79623055D+01 0.49783478D+00
-0.49783478D+00 0.49783478D+00-0.27657392D+01 0.27657392D+01-0.27657392D+01
-0.10314722D+02 0.10314722D+02-0.10314722D+02-0.30471532D+01-0.30471532D+01
-0.30471532D+01-0.47799739D-01 0.47799739D-01-0.47799739D-01-0.10748348D+02
-0.10748348D+02-0.10748348D+02 0.21155751D+01-0.21155751D+01 0.21155751D+01
 0.66978956D+00-0.66978956D+00 0.66978956D+00 0.23144641D+00-0.23144641D+00
 0.23144641D+00 0.23144641D+00-0.23144641D+00 0.23144641D+00 0.77103697D-01
-0.23543293D+00 0.77493299D+00-0.77493299D+00 0.77493299D+00-0.46595082D+00
-0.46595082D+00-0.46595082D+00-0.16623345D-01 0.16623345D-01-0.16623345D-01
 0.72512048D+01-0.72512048D+01 0.72512048D+01 0.30140982D+01-0.30140982D+01
 0.30140982D+01 0.30140982D+01-0.30140982D+01 0.30140982D+01 0.42713323D+00
  325 Alpha MO OE= 0.71903868D+02
 0.41975119D+02 0.55164569D+02 0.51905950D+01 0.88033544D+02-0.28283609D+02
 0.00000000D+00 0.00000000D+00 0.00000000D+00 0.00000000D+00 0.00000000D+00
 0.00000000D+00 0.00000000D+00 0.00000000D+00 0.00000000D+00 0.00000000D+00
 0.00000000D+00 0.00000000D+00-0.12326286D+02-0.12326286D+02-0.12326286D+02
 0.00000000D+00 0.00000000D+00 0.00000000D+00-0.78437092D+01-0.78437092D+01
-0.78437092D+01 0.00000000D+00 0.00000000D+00 0.00000000D+00 0.34290991D+01
 0.34290991D+01 0.34290991D+01 0.00000000D+00 0.00000000D+00 0.00000000D+00
 0.00000000D+00 0.00000000D+00 0.00000000D+00 0.00000000D+00 0.00000000D+00
 0.00000000D+00 0.00000000D+00 0.00000000D+00 0.00000000D+00 0.25804525D+00
 0.00000000D+00 0.00000000D+00 0.00000000D+00 0.00000000D+00 0.00000000D+00
 0.00000000D+00 0.00000000D+00 0.00000000D+00 0.00000000D+00 0.39613329D+01
-0.73880245D+01 0.00000000D+00-0.41059176D+01 0.00000000D+00-0.73880245D+01
 0.00000000D+00 0.00000000D+00 0.00000000D+00 0.00000000D+00-0.41059176D+01
 0.00000000D+00-0.41059176D+01 0.00000000D+00 0.00000000D+00-0.73880245D+01
 0.23865682D+01 0.00000000D+00 0.00000000D+00 0.00000000D+00-0.21509166D+01
-0.21509166D+01-0.21509166D+01 0.00000000D+00 0.00000000D+00 0.00000000D+00
 0.00000000D+00 0.00000000D+00 0.00000000D+00 0.00000000D+00 0.00000000D+00
 0.00000000D+00 0.00000000D+00 0.00000000D+00 0.00000000D+00 0.40230662D-01
-0.96397744D+01 0.00000000D+00-0.46707641D+01 0.00000000D+00-0.96397744D+01
 0.00000000D+00 0.00000000D+00 0.00000000D+00 0.00000000D+00-0.46707641D+01
 0.00000000D+00-0.46707641D+01 0.00000000D+00 0.00000000D+00-0.96397744D+01
-0.46496482D-01-0.50891563D+01 0.33702718D+01 0.66224585D+01-0.27027098D+00
-0.27027098D+00-0.27027098D+00 0.14513851D+01 0.14513851D+01 0.14513851D+01
 0.18718268D+01 0.18718268D+01 0.18718268D+01-0.73830465D-01-0.73830465D-01
-0.73830465D-01-0.47763912D-01-0.47763912D-01-0.47763912D-01-0.15133798D+01
-0.15133798D+01-0.15133798D+01-0.50026838D+00-0.50026838D+00-0.50026838D+00
-0.33146671D+00-0.33146671D+00-0.33146671D+00-0.96109686D-01-0.96109686D-01
-0.96109686D-01-0.96109686D-01-0.96109686D-01-0.96109686D-01 0.93267444D-01
-0.38920569D-01-0.74779525D+00-0.74779525D+00-0.74779525D+00-0.46885860D+00
-0.46885860D+00-0.46885860D+00 0.21215951D+00 0.21215951D+00 0.21215951D+00
-0.12111661D+01-0.12111661D+01-0.12111661D+01-0.52412469D+00-0.52412469D+00
-0.52412469D+00-0.52412469D+00-0.52412469D+00-0.52412469D+00 0.58668672D-01
-0.46496482D-01-0.50891563D+01 0.33702718D+01 0.66224585D+01 0.27027098D+00
 0.27027098D+00-0.27027098D+00-0.14513851D+01-0.14513851D+01 0.14513851D+01
-0.18718268D+01-0.18718268D+01 0.18718268D+01-0.73830465D-01-0.73830465D-01
-0.73830465D-01-0.47763912D-01 0.47763912D-01 0.47763912D-01-0.15133798D+01
-0.15133798D+01-0.15133798D+01-0.50026838D+00 0.50026838D+00 0.50026838D+00
 0.33146671D+00 0.33146671D+00-0.33146671D+00 0.96109686D-01 0.96109686D-01
-0.96109686D-01 0.96109686D-01 0.96109686D-01-0.96109686D-01 0.93267444D-01
-0.38920569D-01 0.74779525D+00 0.74779525D+00-0.74779525D+00-0.46885860D+00
-0.46885860D+00-0.46885860D+00 0.21215951D+00-0.21215951D+00-0.21215951D+00
 0.12111661D+01 0.12111661D+01-0.12111661D+01 0.52412469D+00 0.52412469D+00
-0.52412469D+00 0.52412469D+00 0.52412469D+00-0.52412469D+00 0.58668672D-01
-0.46496482D-01-0.50891563D+01 0.33702718D+01 0.66224585D+01-0.27027098D+00
 0.27027098D+00 0.27027098D+00 0.14513851D+01-0.14513851D+01-0.14513851D+01
 0.18718268D+01-0.18718268D+01-0.18718268D+01-0.73830465D-01-0.73830465D-01
-0.73830465D-01 0.47763912D-01 0.47763912D-01-0.47763912D-01-0.15133798D+01
-0.15133798D+01-0.15133798D+01 0.50026838D+00 0.50026838D+00-0.50026838D+00
-0.33146671D+00 0.33146671D+00 0.33146671D+00-0.96109686D-01 0.96109686D-01
 0.96109686D-01-0.96109686D-01 0.96109686D-01 0.96109686D-01 0.93267444D-01
-0.38920569D-01-0.74779525D+00 0.74779525D+00 0.74779525D+00-0.46885860D+00
-0.46885860D+00-0.46885860D+00-0.21215951D+00-0.21215951D+00 0.21215951D+00
-0.12111661D+01 0.12111661D+01 0.12111661D+01-0.52412469D+00 0.52412469D+00
 0.52412469D+00-0.52412469D+00 0.52412469D+00 0.52412469D+00 0.58668672D-01
-0.46496482D-01-0.50891563D+01 0.33702718D+01 0.66224585D+01 0.27027098D+00
-0.27027098D+00 0.27027098D+00-0.14513851D+01 0.14513851D+01-0.14513851D+01
-0.18718268D+01 0.18718268D+01-0.18718268D+01-0.73830465D-01-0.73830465D-01
-0.73830465D-01 0.47763912D-01-0.47763912D-01 0.47763912D-01-0.15133798D+01
-0.15133798D+01-0.15133798D+01 0.50026838D+00-0.50026838D+00 0.50026838D+00
 0.33146671D+00-0.33146671D+00 0.33146671D+00 0.96109686D-01-0.96109686D-01
 0.96109686D-01 0.96109686D-01-0.96109686D-01 0.96109686D-01 0.93267444D-01
-0.38920569D-01 0.74779525D+00-0.74779525D+00 0.74779525D+00-0.46885860D+00
-0.46885860D+00-0.46885860D+00-0.21215951D+00 0.21215951D+00-0.21215951D+00
 0.12111661D+01-0.12111661D+01 0.12111661D+01 0.52412469D+00-0.52412469D+00
 0.52412469D+00 0.52412469D+00-0.52412469D+00 0.52412469D+00 0.58668672D-01
820.9u 7.1s 13:52 99% 0+0k 545+5io 81pf+0w
Mon Feb 27 19:38:25 CST 2006
