[Molden Format]
[Molpro variables]
_NUMVAR=  783.0000000000000    
_AVOGAD= 0.6022136736000000E+24
_BOLTZ= 0.1380658000000000E-22
_CLIGHT=  29979245800.00000    
_EV2006= 0.3674930886769165E-01
_EV= 0.3674932534394180E-01
_ENULL= 0.8854187817000000E-11
_KJOULE= 0.3808798324128737E-03
_KJOULE/MOL= 0.3808798324128737E-03
_CM= 0.4556335267302901E-05
_CM-1= 0.4556335267302901E-05
_DEB2SI= 0.3335641000000000E-29
_AMU2AU=  1822.888390000000    
_KCAL= 0.1593601117815568E-02
_KCAL/MOL= 0.1593601117815568E-02
_KELVIN2006= 0.3166828861084835E-05
_KELVIN= 0.3166814820820034E-05
_JOULE= 0.4359748200000000E-17
_HERTZ2006= 0.1519829850815779E-15
_HERTZ= 0.1519829846011223E-15
_HZ2006= 0.1519829850815779E-15
_HZ= 0.1519829846011223E-15
_JPCAL=  4.184000000000000    
_PLANCK= 0.6626075540000000E-33
_TOA2006= 0.5291772490000000    
_TOA= 0.5291772090000000    
_TOANG2006= 0.5291772490000000    
_TOANG= 0.5291772090000000    
_TORAD= 0.1745329251994330E-01
_TOCM=  219474.6306700000    
_TODEBYE=  2.541580000000000    
_TOEV2006=  27.21139610000000    
_TOE= 0.4803242000000000E-09
_TOEV=  27.21138390000000    
_TOHERTZ2006=  6579683899900000.    
_TOHERTZ=  6579683920700000.    
_TOHZ2006=  6579683899900000.    
_TOHZ=  6579683920700000.    
_TOK2006=  315773.3000000000    
_TOK=  315774.7000000000    
_TOKCAL=  627.5096000000000    
_TOKELVIN2006=  315773.3000000000    
_TOKELVIN=  315774.7000000000    
_TOKJ=  2625.500000000000    
_TOKJOULE=  2625.500000000000    
_TOKG= 0.1660565586000000E-26
_ANG2006=  1.889725988578923    
_ANG=  1.889726131421507    
_ANGSTROM2006=  1.889725988578923    
_ANGSTROM=  1.889726131421507    
_RPAREF=  0.000000000000000    
_RPADISS=  0.000000000000000    
_IGNORE_UNDEF=  2.000000000000000    
_STRICTCHECK=  0.000000000000000    
_SEW_ONEEL=  0.000000000000000    
_CPPDONE=FALSE
_DKROLL_DONE=  0.000000000000000    
_FOCKDONE=TRUE
_GRADONE=FALSE
_HESSDONE=FALSE
_INTDONE=TRUE
_SCFDONE=TRUE
_MODUL_BLOCK=FALSE
_MODUL_CUDA=FALSE
_MODUL_SLATER=FALSE
_MODUL_MRCC=FALSE
_MODUL_NBO6=FALSE
_MODUL_NECI=TRUE
_MODUL_AIMS=TRUE
_MRCC_EXEC=
_FITC_AO_SAVED=FALSE
_FITC_MO_SAVED=FALSE
_SHARED_FS=TRUE
_LSTYP=SEWARD
_INTYP=INTS
_GEOMTYP=ZMAT
_GRADTYP=ALASKA
_DIRECT=FALSE
_DKHO= -1.000000000000000    
_SYNCM=  0.000000000000000    
_BASIS=AVTZ
_ZORIENT=  1.000000000000000    
_NELEC=  14.00000000000000    
!SPIN=  0.000000000000000    
_QSDSTEP=  0.000000000000000    
_QSDIRC=  0.000000000000000    
_PROGRAM=RHF-SCF
_CPUSTEP= 0.2000000000000002E-01
_SYSSTEP= 0.9999999999999995E-02
_WALLSTEP= 0.4000000000000000E-01
!DFSCF=  0.000000000000000    
!SCSGRD=  0.000000000000000    
_BASINP=  610.0000000000000    
_CPUTOT= 0.3600000000000000    
_CPUSORT= 0.1100000000000000    
_SYSSORT= 0.3999999999999999E-01
_WALLSORT= 0.1600000001490116    
_DFTEXFAC=  1.000000000000000    
_DMX=  0.000000000000000    
_DMY=  0.000000000000000    
_DMZ=  0.000000000000000    
_DMX_SCF=  0.000000000000000    
_DMY_SCF=  0.000000000000000    
_DMZ_SCF=  0.000000000000000    
_EHOMO=-0.6161175740304179    
_ELUMO= 0.8277822236284486E-01
_ENERGY= -108.9853765138381    
_ENUC=  23.70172142687386    
_GRADEXFAC=  9999.000000000000    
_GRADMETHOD=  1.000000000000000    
_NMRMETHOD=  0.000000000000000    
!GRID_FREEZE= -1.000000000000000    
_ITERATIONS=  8.000000000000000    
_LASTNELEC=  14.00000000000000    
_LASTSPIN=  0.000000000000000    
_LASTSYM=  1.000000000000000    
_MPP_PROG=  1.000000000000000    
_NPROC_MPP=  10.00000000000000    
_NPROC_MPPX=  10.00000000000000    
_NPROC_SMP=  1.000000000000000    
_NUMSTEP=  0.000000000000000    
_ORBITAL=  2100.200000000000    
_PI=  3.141592653589793    
_SEIG_MIN= 0.6910872591921278E-04
_SEWPROP=TRUE
_STATUS=  1.000000000000000    
_SYSTOT= 0.1000000000000000    
_VERSION=  2012001.000000000    
_WALLTOT=  1.160000000000000    
_DATE=05-Oct-17
_LASTORB=RHF
_MACHINE=Linux-2.6.32-696.10.3.el6.x86_64/nxt2051(x86_64) 64 bit mpp version
_OUTPUT=/scratch/user/r-lucchese/H2ONormMode31829/molpro.xml
_PGROUP=D2h
_TIME=17:52:15
_LIBMOL=/general/software/x86_64/lms/molpro-2012.1_patch_level-16/lib/
!VIBCNT=  0.000000000000000    
!RGHFCNT=  0.000000000000000    
!SURFREC=  0.000000000000000    
!POLYREC=  0.000000000000000    
!DIPREC=  0.000000000000000    
!VSCFREC=  0.000000000000000    
!VCIREC=  0.000000000000000    
!PVCIREC=  0.000000000000000    
!VMP2REC=  0.000000000000000    
!VMCSCFREC=  0.000000000000000    
!VMRCIREC=  0.000000000000000    
!VIBINFO=  0.000000000000000    
!GAREC=  0.000000000000000    
!SCFORB=  21002.00000000000    
!NEWMOL= -1.000000000000000    
!NEWSYM= -1.000000000000000    
_SLFILES=slscratch
_NGSSTO=  9.000000000000000    
_SIN=SIN
_COS=COS
_TAN=TAN
_ACOS=ACOS
_ASIN=ASIN
_ATAN=ATAN
_COSH=COSH
_SINH=SINH
_TANH=TANH
_ABS=ABS
_MOD=MOD
_ERF=ERF
_REFC=REFC
_ERFC=ERFC
_HYPOT=HYPOT
_J0=J0
_J1=J1
_JN=JN
_GAMMA=GAMMA
_LGAMMA=LGAMMA
_Y0=Y0
_Y1=Y1
_YN=YN
_EXP=EXP
_LOG=LOG
_LOG10=LOG10
_SQRT=SQRT
_INT=INT
_NINT=NINT
_MAX=MAX
_MIN=MIN
_COSMO=  0.000000000000000    
_COSMOIT=  0.000000000000000    
_COSMOES=  0.000000000000000    
_COSMOEDS=  0.000000000000000    
_COSMOEC=  0.000000000000000    
_COSMOEDCORR=  0.000000000000000    
_FEPSI=  1.000000000000000    
_SL_IsMM=  0.000000000000000    
_SL_NSYM=  8.000000000000000    
_SL_System_BitSw=  0.000000000000000    
_SL_Unique_atoms=  0.000000000000000    
_SL_GRAD=  0.000000000000000    
_SL_MAXUPD_Hess=  5.000000000000000    
_SL_N_PRINT_COD=  5.000000000000000    
_SL_PRINT_CODES=  0.000000000000000    
_SL_BasType=  0.000000000000000    
_SL_Energy_Pred=  0.000000000000000    
_SL_New_Coords=  0.000000000000000    
_SL_Total_Nuclea=  0.000000000000000    
_SL_Highest_Mltp=  0.000000000000000    
_SL_Ref_Geom=  0.000000000000000    
_SL_Symmetry_ope=  1.000000000000000    
_SL_agrad=  0.000000000000000    
_SL_GrdMax=  0.000000000000000    
_SL_GrdNorm=  0.000000000000000    
_SL_GrdRMS=  0.000000000000000    
_SL_Hss_Q=  0.000000000000000    
_SL_Hss_X=  0.000000000000000    
_SL_BMxOld=  0.000000000000000    
_SL_KtB=  0.000000000000000    
!LATTICE= -1.000000000000000    
!NEWLATTICE=  0.000000000000000    
!LATGRAD_VAR=FALSE
!SEW_LATTICE=  1.000000000000000    
!LOCAL=  0.000000000000000    
!SAVEDOM= -1.000000000000000    
!RESTDOM= -1.000000000000000    
!SAVEDOM_HF= -1.000000000000000    
!RESTDOM_HF= -1.000000000000000    
!HESSREC=  0.000000000000000    
!FREQREC=  0.000000000000000    
!NMODREC=  0.000000000000000    
!GTASKS=  0.000000000000000    
!HTASKS=  0.000000000000000    
!THRCHG= 0.1000000000000000    
!DEBUG= -1.000000000000000    
!CFIT_CPHF=  0.000000000000000    
!RDOMAUX_CPHF=  3.000000000000000    
!THRAO_CPHF= 0.1000000000000000E-09
!THRMO_CPHF= 0.1000000000000000E-08
!THROV_CPHF= 0.1000000000000000E-11
!THRSW_CPHF= 0.1000000000000000E-09
!THRPROD_CPHF= 0.1000000000000000E-08
!THRAOPR_CPHF= 0.1000000000000000E-11
!CFIT_SCFGRD=  0.000000000000000    
!RDOMAUX_SCFGRD=  5.000000000000000    
!THRAO_SCFGRD= 0.1000000000000000E-09
!THRMO_SCFGRD= 0.1000000000000000E-08
!THROV_SCFGRD= 0.1000000000000000E-11
!THRSW_SCFGRD= 0.1000000000000000E-09
!THRPROD_SCFGRD= 0.1000000000000000E-08
!THRAOPR_SCFGRD= 0.1000000000000000E-11
!LOCFIT_SCF=  0.000000000000000    
!LOCFIT_MP2= -1.000000000000000    
_RIDOM=  0.000000000000000    
!CC2_METHOD=  0.000000000000000    
_BASIS2006=FALSE
_SVDDEL= -1.000000000000000    
_SVDDELA= -1.000000000000000    
_SVDDELP= -1.000000000000000    
_SVDDELF= -1.000000000000000    
_SVDDELS= -1.000000000000000    
_SVDDEL_ABS= -1.000000000000000    
_SVDDELA_ABS= -1.000000000000000    
_SVDDELP_ABS= -1.000000000000000    
_SVDDELF_ABS= -1.000000000000000    
_SVDDELS_ABS= -1.000000000000000    
_MAXBASIS=  0.000000000000000    
!OPT_CONICAL=  0.000000000000000    
!CLEARSP_JGRID=  0.000000000000000    
_4EXT_NDISKS=  1.000000000000000    
!ZMP=  0.000000000000000    
_MAXIT_ZMP=  500.0000000000000    
_MAXDIS_ZMP=  100.0000000000000    
_ACCU_ZMP=  14.00000000000000    
_SHIFTA_ZMP= -100.0000000000000    
!EMBEDFLAG=  1.000000000000000    
!EMBED=FALSE
!EMBED_F12=FALSE
!EMBEDNUC=  0.000000000000000    
_EMBEDENERGY=  0.000000000000000    
_KSPACETIME=  0.000000000000000    
_RSPACETIME=  0.000000000000000    
!EMBED_DFC=FALSE
!NUM_VOIDS=  0.000000000000000    
_IBODY=  0.000000000000000    
_EMBE_TOTAL=  0.000000000000000    
_EMBE_HF=  0.000000000000000    
_EMBE_CORR=  0.000000000000000    
!EDFT=  0.000000000000000    
_IFASTLATGRAD=  0.000000000000000    
_SINDEX=  0.000000000000000    
RNN=  1.094000000000000    
GX1=  0.000000000000000    
GY1=  0.000000000000000    
GZ1= -1.033680193887564    
GX2=  0.000000000000000    
GY2=  0.000000000000000    
GZ2=  1.033680193887564    
[Atoms] Angs
N     1    7         0.0000000000        0.0000000000       -0.5470000000
N     2    7         0.0000000000        0.0000000000        0.5470000000
[GTO]
  1 0
 s   10  1.00
  0.1142000000D+05  0.5229996559D-03
  0.1712000000D+04  0.4044997339D-02
  0.3893000000D+03  0.2077498633D-01
  0.1100000000D+03  0.8072694689D-01
  0.3557000000D+02  0.2330738467D+00
  0.1254000000D+02  0.4335007148D+00
  0.4644000000D+01  0.3474717714D+00
  0.1293000000D+01  0.4126197285D-01
  0.5118000000D+00 -0.8507994403D-02
  0.1787000000D+00  0.2383998432D-02
 s   10  1.00
  0.1142000000D+05 -0.1149999544D-03
  0.1712000000D+04 -0.8949996452D-03
  0.3893000000D+03 -0.4623998167D-02
  0.1100000000D+03 -0.1852799265D-01
  0.3557000000D+02 -0.5733897727D-01
  0.1254000000D+02 -0.1320759476D+00
  0.4644000000D+01 -0.1725099316D+00
  0.1293000000D+01  0.1518139398D+00
  0.5118000000D+00  0.5999437621D+00
  0.1787000000D+00  0.3874618464D+00
 s   10  1.00
  0.1142000000D+05  0.0000000000D+00
  0.1712000000D+04  0.0000000000D+00
  0.3893000000D+03  0.0000000000D+00
  0.1100000000D+03  0.0000000000D+00
  0.3557000000D+02  0.0000000000D+00
  0.1254000000D+02  0.0000000000D+00
  0.4644000000D+01  0.0000000000D+00
  0.1293000000D+01  0.1000000000D+01
  0.5118000000D+00  0.0000000000D+00
  0.1787000000D+00  0.0000000000D+00
 s   10  1.00
  0.1142000000D+05  0.0000000000D+00
  0.1712000000D+04  0.0000000000D+00
  0.3893000000D+03  0.0000000000D+00
  0.1100000000D+03  0.0000000000D+00
  0.3557000000D+02  0.0000000000D+00
  0.1254000000D+02  0.0000000000D+00
  0.4644000000D+01  0.0000000000D+00
  0.1293000000D+01  0.0000000000D+00
  0.5118000000D+00  0.0000000000D+00
  0.1787000000D+00  0.1000000000D+01
 s    1  1.00
  0.5760000000D-01  0.1000000000D+01
 p    5  1.00
  0.2663000000D+02  0.1467000345D-01
  0.5948000000D+01  0.9176402155D-01
  0.1742000000D+01  0.2986830701D+00
  0.5550000000D+00  0.4984871171D+00
  0.1725000000D+00  0.3370230791D+00
 p    5  1.00
  0.2663000000D+02  0.0000000000D+00
  0.5948000000D+01  0.0000000000D+00
  0.1742000000D+01  0.0000000000D+00
  0.5550000000D+00  0.1000000000D+01
  0.1725000000D+00  0.0000000000D+00
 p    5  1.00
  0.2663000000D+02  0.0000000000D+00
  0.5948000000D+01  0.0000000000D+00
  0.1742000000D+01  0.0000000000D+00
  0.5550000000D+00  0.0000000000D+00
  0.1725000000D+00  0.1000000000D+01
 p    1  1.00
  0.4910000000D-01  0.1000000000D+01
 d    1  1.00
  0.1654000000D+01  0.1000000000D+01
 d    1  1.00
  0.4690000000D+00  0.1000000000D+01
 d    1  1.00
  0.1510000000D+00  0.1000000000D+01
 f    1  1.00
  0.1093000000D+01  0.1000000000D+01
 f    1  1.00
  0.3640000000D+00  0.1000000000D+01
  
  2 0
 s   10  1.00
  0.1142000000D+05  0.5229996559D-03
  0.1712000000D+04  0.4044997339D-02
  0.3893000000D+03  0.2077498633D-01
  0.1100000000D+03  0.8072694689D-01
  0.3557000000D+02  0.2330738467D+00
  0.1254000000D+02  0.4335007148D+00
  0.4644000000D+01  0.3474717714D+00
  0.1293000000D+01  0.4126197285D-01
  0.5118000000D+00 -0.8507994403D-02
  0.1787000000D+00  0.2383998432D-02
 s   10  1.00
  0.1142000000D+05 -0.1149999544D-03
  0.1712000000D+04 -0.8949996452D-03
  0.3893000000D+03 -0.4623998167D-02
  0.1100000000D+03 -0.1852799265D-01
  0.3557000000D+02 -0.5733897727D-01
  0.1254000000D+02 -0.1320759476D+00
  0.4644000000D+01 -0.1725099316D+00
  0.1293000000D+01  0.1518139398D+00
  0.5118000000D+00  0.5999437621D+00
  0.1787000000D+00  0.3874618464D+00
 s   10  1.00
  0.1142000000D+05  0.0000000000D+00
  0.1712000000D+04  0.0000000000D+00
  0.3893000000D+03  0.0000000000D+00
  0.1100000000D+03  0.0000000000D+00
  0.3557000000D+02  0.0000000000D+00
  0.1254000000D+02  0.0000000000D+00
  0.4644000000D+01  0.0000000000D+00
  0.1293000000D+01  0.1000000000D+01
  0.5118000000D+00  0.0000000000D+00
  0.1787000000D+00  0.0000000000D+00
 s   10  1.00
  0.1142000000D+05  0.0000000000D+00
  0.1712000000D+04  0.0000000000D+00
  0.3893000000D+03  0.0000000000D+00
  0.1100000000D+03  0.0000000000D+00
  0.3557000000D+02  0.0000000000D+00
  0.1254000000D+02  0.0000000000D+00
  0.4644000000D+01  0.0000000000D+00
  0.1293000000D+01  0.0000000000D+00
  0.5118000000D+00  0.0000000000D+00
  0.1787000000D+00  0.1000000000D+01
 s    1  1.00
  0.5760000000D-01  0.1000000000D+01
 p    5  1.00
  0.2663000000D+02  0.1467000345D-01
  0.5948000000D+01  0.9176402155D-01
  0.1742000000D+01  0.2986830701D+00
  0.5550000000D+00  0.4984871171D+00
  0.1725000000D+00  0.3370230791D+00
 p    5  1.00
  0.2663000000D+02  0.0000000000D+00
  0.5948000000D+01  0.0000000000D+00
  0.1742000000D+01  0.0000000000D+00
  0.5550000000D+00  0.1000000000D+01
  0.1725000000D+00  0.0000000000D+00
 p    5  1.00
  0.2663000000D+02  0.0000000000D+00
  0.5948000000D+01  0.0000000000D+00
  0.1742000000D+01  0.0000000000D+00
  0.5550000000D+00  0.0000000000D+00
  0.1725000000D+00  0.1000000000D+01
 p    1  1.00
  0.4910000000D-01  0.1000000000D+01
 d    1  1.00
  0.1654000000D+01  0.1000000000D+01
 d    1  1.00
  0.4690000000D+00  0.1000000000D+01
 d    1  1.00
  0.1510000000D+00  0.1000000000D+01
 f    1  1.00
  0.1093000000D+01  0.1000000000D+01
 f    1  1.00
  0.3640000000D+00  0.1000000000D+01
 
 
[MO]
 Sym=      1.1
 Ene=     -15.6842
 Spin= Alpha
 Occup=    2.000000
1 0.70684909337513
2 0.000983882606402
3 0.000871508136922
4 -0.000578310193087
5 -0.000268996519158
6 0.0
7 0.0
8 0.005108802310298
9 0.0
10 0.0
11 -0.002877932139763
12 0.0
13 0.0
14 -0.001695384333434
15 0.0
16 0.0
17 0.000132485334788
18 -0.000265748125837
19 -0.000265748125837
20 0.000531496251674
21 0.0
22 0.0
23 0.0
24 0.000314000081339
25 0.000314000081339
26 -0.000628000162679
27 0.0
28 0.0
29 0.0
30 -0.000127761004316
31 -0.000127761004316
32 0.000255522008631
33 0.0
34 0.0
35 0.0
36 0.0
37 0.0
38 -0.000141290124579
39 0.0
40 0.0
41 0.000094780296933
42 0.0
43 0.0
44 0.000094780296933
45 0.0
46 0.0
47 0.0
48 -0.000264731667043
49 0.0
50 0.0
51 0.000177587400992
52 0.0
53 0.0
54 0.000177587400992
55 0.0
56 0.70684909337513
57 0.000983882606402
58 0.000871508136922
59 -0.000578310193087
60 -0.000268996519158
61 0.0
62 0.0
63 -0.005108802310298
64 0.0
65 0.0
66 0.002877932139763
67 0.0
68 0.0
69 0.001695384333434
70 0.0
71 0.0
72 -0.000132485334788
73 -0.000265748125837
74 -0.000265748125837
75 0.000531496251674
76 0.0
77 0.0
78 0.0
79 0.000314000081339
80 0.000314000081339
81 -0.000628000162679
82 0.0
83 0.0
84 0.0
85 -0.000127761004316
86 -0.000127761004316
87 0.000255522008631
88 0.0
89 0.0
90 0.0
91 0.0
92 0.0
93 0.000141290124579
94 0.0
95 0.0
96 -0.000094780296933
97 0.0
98 0.0
99 -0.000094780296933
100 0.0
101 0.0
102 0.0
103 0.000264731667043
104 0.0
105 0.0
106 -0.000177587400992
107 0.0
108 0.0
109 -0.000177587400992
110 0.0
 Sym=      1.5
 Ene=     -15.6806
 Spin= Alpha
 Occup=    2.000000
1 0.70670836079848
2 -0.001029075197327
3 0.000548418616436
4 0.020434556244694
5 0.004126508430072
6 0.0
7 0.0
8 0.003114698285382
9 0.0
10 0.0
11 -0.000600983224198
12 0.0
13 0.0
14 0.007893909783540
15 0.0
16 0.0
17 0.000724016697449
18 -0.000347382467543
19 -0.000347382467543
20 0.000694764935085
21 0.0
22 0.0
23 0.0
24 -0.000448764992337
25 -0.000448764992337
26 0.000897529984674
27 0.0
28 0.0
29 0.0
30 -0.000703358654525
31 -0.000703358654526
32 0.001406717309051
33 0.0
34 0.0
35 0.0
36 0.0
37 0.0
38 0.000501894405049
39 0.0
40 0.0
41 -0.000336681002165
42 0.0
43 0.0
44 -0.000336681002165
45 0.0
46 0.0
47 0.0
48 0.000012381225966
49 0.0
50 0.0
51 -0.000008305578872
52 0.0
53 0.0
54 -0.000008305578872
55 0.0
56 -0.70670836079848
57 0.001029075197327
58 -0.000548418616436
59 -0.020434556244694
60 -0.004126508430072
61 0.0
62 0.0
63 0.003114698285382
64 0.0
65 0.0
66 -0.000600983224198
67 0.0
68 0.0
69 0.007893909783540
70 0.0
71 0.0
72 0.000724016697449
73 0.000347382467543
74 0.000347382467543
75 -0.000694764935085
76 0.0
77 0.0
78 0.0
79 0.000448764992337
80 0.000448764992337
81 -0.000897529984674
82 0.0
83 0.0
84 0.0
85 0.000703358654525
86 0.000703358654526
87 -0.001406717309051
88 0.0
89 0.0
90 0.0
91 0.0
92 0.0
93 0.000501894405049
94 0.0
95 0.0
96 -0.000336681002165
97 0.0
98 0.0
99 -0.000336681002165
100 0.0
101 0.0
102 0.0
103 0.000012381225966
104 0.0
105 0.0
106 -0.000008305578872
107 0.0
108 0.0
109 -0.000008305578872
110 0.0
 Sym=      2.1
 Ene=      -1.4752
 Spin= Alpha
 Occup=    2.000000
1 -0.018071346014698
2 0.63248451320891
3 -0.003412539298438
4 -0.13780345767581
5 -0.006723529206620
6 0.0
7 0.0
8 0.34534854037134
9 0.0
10 0.0
11 -0.039455269964992
12 0.0
13 0.0
14 -0.12513779608396
15 0.0
16 0.0
17 -0.010946452268478
18 -0.010263416798554
19 -0.010263416798554
20 0.020526833597109
21 0.0
22 0.0
23 0.0
24 -0.007570658823402
25 -0.007570658823402
26 0.015141317646804
27 0.0
28 0.0
29 0.0
30 0.008310055806201
31 0.008310055806202
32 -0.016620111612403
33 0.0
34 0.0
35 0.0
36 0.0
37 0.0
38 0.007485441658271
39 0.0
40 0.0
41 -0.005021386916851
42 0.0
43 0.0
44 -0.005021386916851
45 0.0
46 0.0
47 0.0
48 -0.004098476867498
49 0.0
50 0.0
51 0.002749341863981
52 0.0
53 0.0
54 0.002749341863981
55 0.0
56 -0.018071346014698
57 0.63248451320891
58 -0.003412539298438
59 -0.13780345767581
60 -0.006723529206620
61 0.0
62 0.0
63 -0.34534854037134
64 0.0
65 0.0
66 0.039455269964992
67 0.0
68 0.0
69 0.12513779608396
70 0.0
71 0.0
72 0.010946452268478
73 -0.010263416798554
74 -0.010263416798554
75 0.020526833597109
76 0.0
77 0.0
78 0.0
79 -0.007570658823402
80 -0.007570658823402
81 0.015141317646804
82 0.0
83 0.0
84 0.0
85 0.008310055806201
86 0.008310055806202
87 -0.016620111612403
88 0.0
89 0.0
90 0.0
91 0.0
92 0.0
93 -0.007485441658271
94 0.0
95 0.0
96 0.005021386916851
97 0.0
98 0.0
99 0.005021386916851
100 0.0
101 0.0
102 0.0
103 0.004098476867498
104 0.0
105 0.0
106 -0.002749341863981
107 0.0
108 0.0
109 -0.002749341863981
110 0.0
 Sym=      2.5
 Ene=      -0.7786
 Spin= Alpha
 Occup=    2.000000
1 -0.004364727604520
2 -0.65676790078988
3 -0.000110388640425
4 -0.21999342895989
5 -0.038514278536674
6 0.0
7 0.0
8 0.32288883766417
9 0.0
10 0.0
11 -0.021893588852874
12 0.0
13 0.0
14 -0.11404988811163
15 0.0
16 0.0
17 -0.001372277883240
18 -0.001560677997101
19 -0.001560677997101
20 0.003121355994202
21 0.0
22 0.0
23 0.0
24 -0.000670293930742
25 -0.000670293930742
26 0.001340587861483
27 0.0
28 0.0
29 0.0
30 0.006724955933596
31 0.006724955933597
32 -0.013449911867193
33 0.0
34 0.0
35 0.0
36 0.0
37 0.0
38 -0.001051151584462
39 0.0
40 0.0
41 0.000705133919254
42 0.0
43 0.0
44 0.000705133919254
45 0.0
46 0.0
47 0.0
48 0.000286970275500
49 0.0
50 0.0
51 -0.000192505513062
52 0.0
53 0.0
54 -0.000192505513062
55 0.0
56 0.004364727604520
57 0.65676790078988
58 0.000110388640425
59 0.21999342895989
60 0.038514278536674
61 0.0
62 0.0
63 0.32288883766417
64 0.0
65 0.0
66 -0.021893588852874
67 0.0
68 0.0
69 -0.11404988811163
70 0.0
71 0.0
72 -0.001372277883240
73 0.001560677997101
74 0.001560677997101
75 -0.003121355994202
76 0.0
77 0.0
78 0.0
79 0.000670293930742
80 0.000670293930742
81 -0.001340587861483
82 0.0
83 0.0
84 0.0
85 -0.006724955933596
86 -0.006724955933597
87 0.013449911867193
88 0.0
89 0.0
90 0.0
91 0.0
92 0.0
93 -0.001051151584462
94 0.0
95 0.0
96 0.000705133919254
97 0.0
98 0.0
99 0.000705133919254
100 0.0
101 0.0
102 0.0
103 0.000286970275500
104 0.0
105 0.0
106 -0.000192505513062
107 0.0
108 0.0
109 -0.000192505513062
110 0.0
 Sym=      3.1
 Ene=      -0.6350
 Spin= Alpha
 Occup=    2.000000
1 -0.004814076043067
2 -0.24122761127703
3 0.001826716152906
4 -0.14491629080856
5 -0.027899859037104
6 0.0
7 0.0
8 0.69816538943466
9 0.0
10 0.0
11 -0.045648273879418
12 0.0
13 0.0
14 -0.10289645350607
15 0.0
16 0.0
17 -0.001874262862298
18 -0.009362552183736
19 -0.009362552183736
20 0.018725104367472
21 0.0
22 0.0
23 0.0
24 -0.006108359160435
25 -0.006108359160435
26 0.012216718320870
27 0.0
28 0.0
29 0.0
30 0.001654915623779
31 0.001654915623779
32 -0.003309831247558
33 0.0
34 0.0
35 0.0
36 0.0
37 0.0
38 0.005590567114208
39 0.0
40 0.0
41 -0.003750266430043
42 0.0
43 0.0
44 -0.003750266430043
45 0.0
46 0.0
47 0.0
48 -0.003315292010850
49 0.0
50 0.0
51 0.002223965490457
52 0.0
53 0.0
54 0.002223965490457
55 0.0
56 -0.004814076043067
57 -0.24122761127703
58 0.001826716152906
59 -0.14491629080856
60 -0.027899859037104
61 0.0
62 0.0
63 -0.69816538943466
64 0.0
65 0.0
66 0.045648273879418
67 0.0
68 0.0
69 0.10289645350607
70 0.0
71 0.0
72 0.001874262862298
73 -0.009362552183736
74 -0.009362552183736
75 0.018725104367472
76 0.0
77 0.0
78 0.0
79 -0.006108359160435
80 -0.006108359160435
81 0.012216718320870
82 0.0
83 0.0
84 0.0
85 0.001654915623779
86 0.001654915623779
87 -0.003309831247558
88 0.0
89 0.0
90 0.0
91 0.0
92 0.0
93 -0.005590567114208
94 0.0
95 0.0
96 0.003750266430043
97 0.0
98 0.0
99 0.003750266430043
100 0.0
101 0.0
102 0.0
103 0.003315292010850
104 0.0
105 0.0
106 -0.002223965490457
107 0.0
108 0.0
109 -0.002223965490457
110 0.0
 Sym=      1.3
 Ene=      -0.6161
 Spin= Alpha
 Occup=    2.000000
1 0.0
2 0.0
3 0.0
4 0.0
5 0.0
6 0.0
7 0.62796374258367
8 0.0
9 0.0
10 -0.007017583388352
11 0.0
12 0.0
13 -0.040173035169153
14 0.0
15 0.0
16 0.005169682942320
17 0.0
18 0.0
19 0.0
20 0.0
21 0.0
22 0.0
23 0.020249822470527
24 0.0
25 0.0
26 0.0
27 0.0
28 0.0
29 0.036570773336045
30 0.0
31 0.0
32 0.0
33 0.0
34 0.0
35 0.007556618658798
36 0.0
37 -0.004962185075407
38 0.0
39 0.0
40 -0.002219156627614
41 0.0
42 0.0
43 0.008876626514940
44 0.0
45 0.0
46 0.0
47 -0.000612760362424
48 0.0
49 0.0
50 -0.000274034764496
51 0.0
52 0.0
53 0.001096139059074
54 0.0
55 0.0
56 0.0
57 0.0
58 0.0
59 0.0
60 0.0
61 0.0
62 0.62796374258367
63 0.0
64 0.0
65 -0.007017583388352
66 0.0
67 0.0
68 -0.040173035169153
69 0.0
70 0.0
71 0.005169682942320
72 0.0
73 0.0
74 0.0
75 0.0
76 0.0
77 0.0
78 -0.020249822470527
79 0.0
80 0.0
81 0.0
82 0.0
83 0.0
84 -0.036570773336045
85 0.0
86 0.0
87 0.0
88 0.0
89 0.0
90 -0.007556618658798
91 0.0
92 -0.004962185075407
93 0.0
94 0.0
95 -0.002219156627614
96 0.0
97 0.0
98 0.008876626514940
99 0.0
100 0.0
101 0.0
102 -0.000612760362424
103 0.0
104 0.0
105 -0.000274034764496
106 0.0
107 0.0
108 0.001096139059074
109 0.0
110 0.0
 Sym=      1.2
 Ene=      -0.6161
 Spin= Alpha
 Occup=    2.000000
1 0.0
2 0.0
3 0.0
4 0.0
5 0.0
6 0.62796374258367
7 0.0
8 0.0
9 -0.007017583388350
10 0.0
11 0.0
12 -0.040173035169151
13 0.0
14 0.0
15 0.005169682942319
16 0.0
17 0.0
18 0.0
19 0.0
20 0.0
21 0.0
22 0.020249822470527
23 0.0
24 0.0
25 0.0
26 0.0
27 0.0
28 0.036570773336045
29 0.0
30 0.0
31 0.0
32 0.0
33 0.0
34 0.007556618658799
35 0.0
36 -0.004962185075407
37 0.0
38 0.0
39 -0.002219156627614
40 0.0
41 0.0
42 0.008876626514940
43 0.0
44 0.0
45 0.0
46 -0.000612760362425
47 0.0
48 0.0
49 -0.000274034764496
50 0.0
51 0.0
52 0.001096139059077
53 0.0
54 0.0
55 0.0
56 0.0
57 0.0
58 0.0
59 0.0
60 0.0
61 0.62796374258367
62 0.0
63 0.0
64 -0.007017583388350
65 0.0
66 0.0
67 -0.040173035169151
68 0.0
69 0.0
70 0.005169682942319
71 0.0
72 0.0
73 0.0
74 0.0
75 0.0
76 0.0
77 -0.020249822470527
78 0.0
79 0.0
80 0.0
81 0.0
82 0.0
83 -0.036570773336045
84 0.0
85 0.0
86 0.0
87 0.0
88 0.0
89 -0.007556618658799
90 0.0
91 -0.004962185075407
92 0.0
93 0.0
94 -0.002219156627614
95 0.0
96 0.0
97 0.008876626514940
98 0.0
99 0.0
100 0.0
101 -0.000612760362425
102 0.0
103 0.0
104 -0.000274034764496
105 0.0
106 0.0
107 0.001096139059077
108 0.0
109 0.0
110 0.0
 Sym=      3.5
 Ene=       0.0828
 Spin= Alpha
 Occup=    0.000000
1 0.004790999829246
2 0.097345229518119
3 -0.006840630194414
4 4.21495432812308
5 13.4155839452934
6 0.0
7 0.0
8 -0.048831926290571
9 0.0
10 0.0
11 0.15821509048168
12 0.0
13 0.0
14 2.33314995990003
15 0.0
16 0.0
17 3.55821841080603
18 0.000028472276109
19 0.000028472276109
20 -0.000056944552218
21 0.0
22 0.0
23 0.0
24 -0.054372359121403
25 -0.054372359121402
26 0.10874471824280
27 0.0
28 0.0
29 0.0
30 -0.24537014619511
31 -0.24537014619511
32 0.49074029239021
33 0.0
34 0.0
35 0.0
36 0.0
37 0.0
38 0.006943549804555
39 0.0
40 0.0
41 -0.004657874810442
42 0.0
43 0.0
44 -0.004657874810442
45 0.0
46 0.0
47 0.0
48 0.024542373448358
49 0.0
50 0.0
51 -0.016463524607914
52 0.0
53 0.0
54 -0.016463524607914
55 0.0
56 -0.004790999829246
57 -0.097345229518119
58 0.006840630194414
59 -4.21495432812308
60 -13.4155839452934
61 0.0
62 0.0
63 -0.048831926290571
64 0.0
65 0.0
66 0.15821509048168
67 0.0
68 0.0
69 2.33314995990003
70 0.0
71 0.0
72 3.55821841080603
73 -0.000028472276109
74 -0.000028472276109
75 0.000056944552218
76 0.0
77 0.0
78 0.0
79 0.054372359121403
80 0.054372359121402
81 -0.10874471824280
82 0.0
83 0.0
84 0.0
85 0.24537014619511
86 0.24537014619511
87 -0.49074029239021
88 0.0
89 0.0
90 0.0
91 0.0
92 0.0
93 0.006943549804555
94 0.0
95 0.0
96 -0.004657874810442
97 0.0
98 0.0
99 -0.004657874810442
100 0.0
101 0.0
102 0.0
103 0.024542373448358
104 0.0
105 0.0
106 -0.016463524607914
107 0.0
108 0.0
109 -0.016463524607914
110 0.0
 Sym=      4.1
 Ene=       0.1171
 Spin= Alpha
 Occup=    0.000000
1 -0.008308586696843
2 -0.16321010219709
3 -0.021917953019628
4 -0.52505128333138
5 0.95796603848473
6 0.0
7 0.0
8 0.14527883345169
9 0.0
10 0.0
11 -0.061497844196983
12 0.0
13 0.0
14 0.34945861485947
15 0.0
16 0.0
17 -0.91800510531210
18 0.002658480794967
19 0.002658480794967
20 -0.005316961589934
21 0.0
22 0.0
23 0.0
24 -0.025065179109405
25 -0.025065179109405
26 0.050130358218809
27 0.0
28 0.0
29 0.0
30 -0.034896748066659
31 -0.034896748066659
32 0.069793496133318
33 0.0
34 0.0
35 0.0
36 0.0
37 0.0
38 0.001400887812205
39 0.0
40 0.0
41 -0.000939744113083
42 0.0
43 0.0
44 -0.000939744113083
45 0.0
46 0.0
47 0.0
48 0.029732244896355
49 0.0
50 0.0
51 -0.019944996213576
52 0.0
53 0.0
54 -0.019944996213576
55 0.0
56 -0.008308586696843
57 -0.16321010219709
58 -0.021917953019628
59 -0.52505128333138
60 0.95796603848473
61 0.0
62 0.0
63 -0.14527883345169
64 0.0
65 0.0
66 0.061497844196983
67 0.0
68 0.0
69 -0.34945861485947
70 0.0
71 0.0
72 0.91800510531210
73 0.002658480794967
74 0.002658480794967
75 -0.005316961589934
76 0.0
77 0.0
78 0.0
79 -0.025065179109405
80 -0.025065179109405
81 0.050130358218809
82 0.0
83 0.0
84 0.0
85 -0.034896748066659
86 -0.034896748066659
87 0.069793496133318
88 0.0
89 0.0
90 0.0
91 0.0
92 0.0
93 -0.001400887812205
94 0.0
95 0.0
96 0.000939744113083
97 0.0
98 0.0
99 0.000939744113083
100 0.0
101 0.0
102 0.0
103 -0.029732244896355
104 0.0
105 0.0
106 0.019944996213576
107 0.0
108 0.0
109 0.019944996213576
110 0.0
 Sym=      1.6
 Ene=       0.1184
 Spin= Alpha
 Occup=    0.000000
1 0.0
2 0.0
3 0.0
4 0.0
5 0.0
6 0.37307536549063
7 0.0
8 0.0
9 0.017926197580281
10 0.0
11 0.0
12 0.59609598260862
13 0.0
14 0.0
15 1.89087622126338
16 0.0
17 0.0
18 0.0
19 0.0
20 0.0
21 0.0
22 -0.007705165108618
23 0.0
24 0.0
25 0.0
26 0.0
27 0.0
28 0.000201966426683
29 0.0
30 0.0
31 0.0
32 0.0
33 0.0
34 0.30043255068406
35 0.0
36 0.003081039288562
37 0.0
38 0.0
39 0.001377882658137
40 0.0
41 0.0
42 -0.005511530632479
43 0.0
44 0.0
45 0.0
46 -0.016594525751596
47 0.0
48 0.0
49 -0.007421297526964
50 0.0
51 0.0
52 0.029685190107928
53 0.0
54 0.0
55 0.0
56 0.0
57 0.0
58 0.0
59 0.0
60 0.0
61 -0.37307536549063
62 0.0
63 0.0
64 -0.017926197580281
65 0.0
66 0.0
67 -0.59609598260862
68 0.0
69 0.0
70 -1.89087622126338
71 0.0
72 0.0
73 0.0
74 0.0
75 0.0
76 0.0
77 -0.007705165108618
78 0.0
79 0.0
80 0.0
81 0.0
82 0.0
83 0.000201966426683
84 0.0
85 0.0
86 0.0
87 0.0
88 0.0
89 0.30043255068406
90 0.0
91 -0.003081039288562
92 0.0
93 0.0
94 -0.001377882658137
95 0.0
96 0.0
97 0.005511530632479
98 0.0
99 0.0
100 0.0
101 0.016594525751596
102 0.0
103 0.0
104 0.007421297526964
105 0.0
106 0.0
107 -0.029685190107928
108 0.0
109 0.0
110 0.0
 Sym=      1.7
 Ene=       0.1184
 Spin= Alpha
 Occup=    0.000000
1 0.0
2 0.0
3 0.0
4 0.0
5 0.0
6 0.0
7 0.37307536549063
8 0.0
9 0.0
10 0.017926197580281
11 0.0
12 0.0
13 0.59609598260860
14 0.0
15 0.0
16 1.89087622126336
17 0.0
18 0.0
19 0.0
20 0.0
21 0.0
22 0.0
23 -0.007705165108618
24 0.0
25 0.0
26 0.0
27 0.0
28 0.0
29 0.000201966426681
30 0.0
31 0.0
32 0.0
33 0.0
34 0.0
35 0.30043255068404
36 0.0
37 0.003081039288562
38 0.0
39 0.0
40 0.001377882658137
41 0.0
42 0.0
43 -0.005511530632480
44 0.0
45 0.0
46 0.0
47 -0.016594525751595
48 0.0
49 0.0
50 -0.007421297526964
51 0.0
52 0.0
53 0.029685190107926
54 0.0
55 0.0
56 0.0
57 0.0
58 0.0
59 0.0
60 0.0
61 0.0
62 -0.37307536549063
63 0.0
64 0.0
65 -0.017926197580281
66 0.0
67 0.0
68 -0.59609598260860
69 0.0
70 0.0
71 -1.89087622126336
72 0.0
73 0.0
74 0.0
75 0.0
76 0.0
77 0.0
78 -0.007705165108618
79 0.0
80 0.0
81 0.0
82 0.0
83 0.0
84 0.000201966426681
85 0.0
86 0.0
87 0.0
88 0.0
89 0.0
90 0.30043255068404
91 0.0
92 -0.003081039288562
93 0.0
94 0.0
95 -0.001377882658137
96 0.0
97 0.0
98 0.005511530632480
99 0.0
100 0.0
101 0.0
102 0.016594525751595
103 0.0
104 0.0
105 0.007421297526964
106 0.0
107 0.0
108 -0.029685190107926
109 0.0
110 0.0
 Sym=      2.2
 Ene=       0.1252
 Spin= Alpha
 Occup=    0.000000
1 0.0
2 0.0
3 0.0
4 0.0
5 0.0
6 -0.16002424376256
7 0.0
8 0.0
9 0.050002768063855
10 0.0
11 0.0
12 -0.19160593260580
13 0.0
14 0.0
15 0.62602224558901
16 0.0
17 0.0
18 0.0
19 0.0
20 0.0
21 0.0
22 -0.005361140383858
23 0.0
24 0.0
25 0.0
26 0.0
27 0.0
28 -0.014883392605956
29 0.0
30 0.0
31 0.0
32 0.0
33 0.0
34 0.027572654128894
35 0.0
36 0.002829387017077
37 0.0
38 0.0
39 0.001265340340524
40 0.0
41 0.0
42 -0.005061361363429
43 0.0
44 0.0
45 0.0
46 -0.003673926241411
47 0.0
48 0.0
49 -0.001643029764484
50 0.0
51 0.0