[Molden Format]
[Molpro variables]
_NUMVAR=  787.0000000000000    
_AVOGAD= 0.6022136736000000E+24
_BOLTZ= 0.1380658000000000E-22
_CLIGHT=  29979245800.00000    
_EV2006= 0.3674930886769165E-01
_EV= 0.3674932534394180E-01
_ENULL= 0.8854187817000000E-11
_KJOULE= 0.3808798324128737E-03
_KJOULE/MOL= 0.3808798324128737E-03
_CM= 0.4556335267302901E-05
_CM-1= 0.4556335267302901E-05
_DEB2SI= 0.3335641000000000E-29
_AMU2AU=  1822.888390000000    
_KCAL= 0.1593601117815568E-02
_KCAL/MOL= 0.1593601117815568E-02
_KELVIN2006= 0.3166828861084835E-05
_KELVIN= 0.3166814820820034E-05
_JOULE= 0.4359748200000000E-17
_HERTZ2006= 0.1519829850815779E-15
_HERTZ= 0.1519829846011223E-15
_HZ2006= 0.1519829850815779E-15
_HZ= 0.1519829846011223E-15
_JPCAL=  4.184000000000000    
_PLANCK= 0.6626075540000000E-33
_TOA2006= 0.5291772490000000    
_TOA= 0.5291772090000000    
_TOANG2006= 0.5291772490000000    
_TOANG= 0.5291772090000000    
_TORAD= 0.1745329251994330E-01
_TOCM=  219474.6306700000    
_TODEBYE=  2.541580000000000    
_TOEV2006=  27.21139610000000    
_TOE= 0.4803242000000000E-09
_TOEV=  27.21138390000000    
_TOHERTZ2006=  6579683899900000.    
_TOHERTZ=  6579683920700000.    
_TOHZ2006=  6579683899900000.    
_TOHZ=  6579683920700000.    
_TOK2006=  315773.3000000000    
_TOK=  315774.7000000000    
_TOKCAL=  627.5096000000000    
_TOKELVIN2006=  315773.3000000000    
_TOKELVIN=  315774.7000000000    
_TOKJ=  2625.500000000000    
_TOKJOULE=  2625.500000000000    
_TOKG= 0.1660565586000000E-26
_ANG2006=  1.889725988578923    
_ANG=  1.889726131421507    
_ANGSTROM2006=  1.889725988578923    
_ANGSTROM=  1.889726131421507    
_RPAREF=  0.000000000000000    
_RPADISS=  0.000000000000000    
_IGNORE_UNDEF=  2.000000000000000    
_STRICTCHECK=  0.000000000000000    
_SEW_ONEEL=  0.000000000000000    
_CPPDONE=FALSE
_DKROLL_DONE=  0.000000000000000    
_FOCKDONE=TRUE
_GRADONE=FALSE
_HESSDONE=FALSE
_INTDONE=TRUE
_SCFDONE=TRUE
_MODUL_BLOCK=FALSE
_MODUL_CUDA=FALSE
_MODUL_SLATER=FALSE
_MODUL_MRCC=FALSE
_MODUL_NBO6=FALSE
_MODUL_NECI=TRUE
_MODUL_AIMS=TRUE
_MRCC_EXEC=
_FITC_AO_SAVED=FALSE
_FITC_MO_SAVED=FALSE
_SHARED_FS=TRUE
_LSTYP=SEWARD
_INTYP=INTS
_GEOMTYP=ZMAT
_GRADTYP=ALASKA
_DIRECT=FALSE
_DKHO= -1.000000000000000    
_SYNCM=  0.000000000000000    
_BASIS=AVTZ
_ZORIENT=  1.000000000000000    
_NELEC=  22.00000000000000    
!SPIN=  0.000000000000000    
_QSDSTEP=  0.000000000000000    
_QSDIRC=  0.000000000000000    
_PROGRAM=RHF-SCF
_CPUSTEP= 0.9000000000000008E-01
_SYSSTEP= 0.2000000000000002E-01
_WALLSTEP= 0.1100000000000000    
!DFSCF=  0.000000000000000    
!SCSGRD=  0.000000000000000    
_BASINP=  610.0000000000000    
_CPUTOT= 0.8800000000000000    
_CPUSORT= 0.3799999999999999    
_SYSSORT= 0.3999999999999999E-01
_WALLSORT= 0.4199999999254942    
_DFTEXFAC=  1.000000000000000    
_DMX=  0.000000000000000    
_DMY=  0.000000000000000    
_DMZ=-0.2431980547397514    
_DMX_SCF=  0.000000000000000    
_DMY_SCF=  0.000000000000000    
_DMZ_SCF=-0.2431980547397514    
_EHOMO=-0.4918178515804723    
_ELUMO= 0.6699118678586051E-01
_ENERGY= -183.7514644768086    
_ENUC=  60.82288135643515    
_GRADEXFAC=  9999.000000000000    
_GRADMETHOD=  1.000000000000000    
_NMRMETHOD=  0.000000000000000    
!GRID_FREEZE= -1.000000000000000    
_ITERATIONS=  10.00000000000000    
_LASTNELEC=  22.00000000000000    
_LASTSPIN=  0.000000000000000    
_LASTSYM=  1.000000000000000    
_MPP_PROG=  1.000000000000000    
_NPROC_MPP=  10.00000000000000    
_NPROC_MPPX=  10.00000000000000    
_NPROC_SMP=  1.000000000000000    
_NUMSTEP=  0.000000000000000    
_ORBITAL=  2100.200000000000    
_PI=  3.141592653589793    
_SEIG_MIN= 0.4690779623445359E-04
_SEWPROP=TRUE
_STATUS=  1.000000000000000    
_SYSTOT= 0.1200000000000000    
_VERSION=  2012001.000000000    
_WALLTOT=  1.550000000000000    
_DATE=05-Oct-17
_LASTORB=RHF
_MACHINE=Linux-2.6.32-696.10.3.el6.x86_64/nxt2063(x86_64) 64 bit mpp version
_OUTPUT=/scratch/user/r-lucchese/H2ONormMode5307/molpro.xml
_PGROUP=C2v
_TIME=18:54:11
_LIBMOL=/general/software/x86_64/lms/molpro-2012.1_patch_level-16/lib/
!VIBCNT=  0.000000000000000    
!RGHFCNT=  0.000000000000000    
!SURFREC=  0.000000000000000    
!POLYREC=  0.000000000000000    
!DIPREC=  0.000000000000000    
!VSCFREC=  0.000000000000000    
!VCIREC=  0.000000000000000    
!PVCIREC=  0.000000000000000    
!VMP2REC=  0.000000000000000    
!VMCSCFREC=  0.000000000000000    
!VMRCIREC=  0.000000000000000    
!VIBINFO=  0.000000000000000    
!GAREC=  0.000000000000000    
!SCFORB=  21002.00000000000    
!NEWMOL= -1.000000000000000    
!NEWSYM= -1.000000000000000    
_SLFILES=slscratch
_NGSSTO=  9.000000000000000    
_SIN=SIN
_COS=COS
_TAN=TAN
_ACOS=ACOS
_ASIN=ASIN
_ATAN=ATAN
_COSH=COSH
_SINH=SINH
_TANH=TANH
_ABS=ABS
_MOD=MOD
_ERF=ERF
_REFC=REFC
_ERFC=ERFC
_HYPOT=HYPOT
_J0=J0
_J1=J1
_JN=JN
_GAMMA=GAMMA
_LGAMMA=LGAMMA
_Y0=Y0
_Y1=Y1
_YN=YN
_EXP=EXP
_LOG=LOG
_LOG10=LOG10
_SQRT=SQRT
_INT=INT
_NINT=NINT
_MAX=MAX
_MIN=MIN
_COSMO=  0.000000000000000    
_COSMOIT=  0.000000000000000    
_COSMOES=  0.000000000000000    
_COSMOEDS=  0.000000000000000    
_COSMOEC=  0.000000000000000    
_COSMOEDCORR=  0.000000000000000    
_FEPSI=  1.000000000000000    
_SL_IsMM=  0.000000000000000    
_SL_NSYM=  4.000000000000000    
_SL_System_BitSw=  0.000000000000000    
_SL_Unique_atoms=  0.000000000000000    
_SL_GRAD=  0.000000000000000    
_SL_MAXUPD_Hess=  5.000000000000000    
_SL_N_PRINT_COD=  5.000000000000000    
_SL_PRINT_CODES=  0.000000000000000    
_SL_BasType=  0.000000000000000    
_SL_Energy_Pred=  0.000000000000000    
_SL_New_Coords=  0.000000000000000    
_SL_Total_Nuclea=  0.000000000000000    
_SL_Highest_Mltp=  0.000000000000000    
_SL_Ref_Geom=  0.000000000000000    
_SL_Symmetry_ope=  1.000000000000000    
_SL_agrad=  0.000000000000000    
_SL_GrdMax=  0.000000000000000    
_SL_GrdNorm=  0.000000000000000    
_SL_GrdRMS=  0.000000000000000    
_SL_Hss_Q=  0.000000000000000    
_SL_Hss_X=  0.000000000000000    
_SL_BMxOld=  0.000000000000000    
_SL_KtB=  0.000000000000000    
!LATTICE= -1.000000000000000    
!NEWLATTICE=  0.000000000000000    
!LATGRAD_VAR=FALSE
!SEW_LATTICE=  1.000000000000000    
!LOCAL=  0.000000000000000    
!SAVEDOM= -1.000000000000000    
!RESTDOM= -1.000000000000000    
!SAVEDOM_HF= -1.000000000000000    
!RESTDOM_HF= -1.000000000000000    
!HESSREC=  0.000000000000000    
!FREQREC=  0.000000000000000    
!NMODREC=  0.000000000000000    
!GTASKS=  0.000000000000000    
!HTASKS=  0.000000000000000    
!THRCHG= 0.1000000000000000    
!DEBUG= -1.000000000000000    
!CFIT_CPHF=  0.000000000000000    
!RDOMAUX_CPHF=  3.000000000000000    
!THRAO_CPHF= 0.1000000000000000E-09
!THRMO_CPHF= 0.1000000000000000E-08
!THROV_CPHF= 0.1000000000000000E-11
!THRSW_CPHF= 0.1000000000000000E-09
!THRPROD_CPHF= 0.1000000000000000E-08
!THRAOPR_CPHF= 0.1000000000000000E-11
!CFIT_SCFGRD=  0.000000000000000    
!RDOMAUX_SCFGRD=  5.000000000000000    
!THRAO_SCFGRD= 0.1000000000000000E-09
!THRMO_SCFGRD= 0.1000000000000000E-08
!THROV_SCFGRD= 0.1000000000000000E-11
!THRSW_SCFGRD= 0.1000000000000000E-09
!THRPROD_SCFGRD= 0.1000000000000000E-08
!THRAOPR_SCFGRD= 0.1000000000000000E-11
!LOCFIT_SCF=  0.000000000000000    
!LOCFIT_MP2= -1.000000000000000    
_RIDOM=  0.000000000000000    
!CC2_METHOD=  0.000000000000000    
_BASIS2006=FALSE
_SVDDEL= -1.000000000000000    
_SVDDELA= -1.000000000000000    
_SVDDELP= -1.000000000000000    
_SVDDELF= -1.000000000000000    
_SVDDELS= -1.000000000000000    
_SVDDEL_ABS= -1.000000000000000    
_SVDDELA_ABS= -1.000000000000000    
_SVDDELP_ABS= -1.000000000000000    
_SVDDELF_ABS= -1.000000000000000    
_SVDDELS_ABS= -1.000000000000000    
_MAXBASIS=  0.000000000000000    
!OPT_CONICAL=  0.000000000000000    
!CLEARSP_JGRID=  0.000000000000000    
_4EXT_NDISKS=  1.000000000000000    
!ZMP=  0.000000000000000    
_MAXIT_ZMP=  500.0000000000000    
_MAXDIS_ZMP=  100.0000000000000    
_ACCU_ZMP=  14.00000000000000    
_SHIFTA_ZMP= -100.0000000000000    
!EMBEDFLAG=  1.000000000000000    
!EMBED=FALSE
!EMBED_F12=FALSE
!EMBEDNUC=  0.000000000000000    
_EMBEDENERGY=  0.000000000000000    
_KSPACETIME=  0.000000000000000    
_RSPACETIME=  0.000000000000000    
!EMBED_DFC=FALSE
!NUM_VOIDS=  0.000000000000000    
_IBODY=  0.000000000000000    
_EMBE_TOTAL=  0.000000000000000    
_EMBE_HF=  0.000000000000000    
_EMBE_CORR=  0.000000000000000    
!EDFT=  0.000000000000000    
_IFASTLATGRAD=  0.000000000000000    
_SINDEX=  0.000000000000000    
RNN=  1.128200000000000    
RNO=  1.184200000000000    
GX1=  0.000000000000000    
GY1= 0.9962296772895782E-16
GZ1= -2.266984878175939    
GX2=  0.000000000000000    
GY2= 0.9962296772895782E-16
GZ2=-0.1349958567061949    
GX3=  0.000000000000000    
GY3=-0.1744301688924827E-15
GZ3=  2.102817828123153    
[Atoms] Angs
N     1    7         0.0000000000        0.0000000000       -1.1996367307
N     2    7         0.0000000000        0.0000000000       -0.0714367307
O     3    8         0.0000000000        0.0000000000        1.1127632693
[GTO]
  1 0
 s   10  1.00
  0.1142000000D+05  0.5229996559D-03
  0.1712000000D+04  0.4044997339D-02
  0.3893000000D+03  0.2077498633D-01
  0.1100000000D+03  0.8072694689D-01
  0.3557000000D+02  0.2330738467D+00
  0.1254000000D+02  0.4335007148D+00
  0.4644000000D+01  0.3474717714D+00
  0.1293000000D+01  0.4126197285D-01
  0.5118000000D+00 -0.8507994403D-02
  0.1787000000D+00  0.2383998432D-02
 s   10  1.00
  0.1142000000D+05 -0.1149999544D-03
  0.1712000000D+04 -0.8949996452D-03
  0.3893000000D+03 -0.4623998167D-02
  0.1100000000D+03 -0.1852799265D-01
  0.3557000000D+02 -0.5733897727D-01
  0.1254000000D+02 -0.1320759476D+00
  0.4644000000D+01 -0.1725099316D+00
  0.1293000000D+01  0.1518139398D+00
  0.5118000000D+00  0.5999437621D+00
  0.1787000000D+00  0.3874618464D+00
 s   10  1.00
  0.1142000000D+05  0.0000000000D+00
  0.1712000000D+04  0.0000000000D+00
  0.3893000000D+03  0.0000000000D+00
  0.1100000000D+03  0.0000000000D+00
  0.3557000000D+02  0.0000000000D+00
  0.1254000000D+02  0.0000000000D+00
  0.4644000000D+01  0.0000000000D+00
  0.1293000000D+01  0.1000000000D+01
  0.5118000000D+00  0.0000000000D+00
  0.1787000000D+00  0.0000000000D+00
 s   10  1.00
  0.1142000000D+05  0.0000000000D+00
  0.1712000000D+04  0.0000000000D+00
  0.3893000000D+03  0.0000000000D+00
  0.1100000000D+03  0.0000000000D+00
  0.3557000000D+02  0.0000000000D+00
  0.1254000000D+02  0.0000000000D+00
  0.4644000000D+01  0.0000000000D+00
  0.1293000000D+01  0.0000000000D+00
  0.5118000000D+00  0.0000000000D+00
  0.1787000000D+00  0.1000000000D+01
 s    1  1.00
  0.5760000000D-01  0.1000000000D+01
 p    5  1.00
  0.2663000000D+02  0.1467000345D-01
  0.5948000000D+01  0.9176402155D-01
  0.1742000000D+01  0.2986830701D+00
  0.5550000000D+00  0.4984871171D+00
  0.1725000000D+00  0.3370230791D+00
 p    5  1.00
  0.2663000000D+02  0.0000000000D+00
  0.5948000000D+01  0.0000000000D+00
  0.1742000000D+01  0.0000000000D+00
  0.5550000000D+00  0.1000000000D+01
  0.1725000000D+00  0.0000000000D+00
 p    5  1.00
  0.2663000000D+02  0.0000000000D+00
  0.5948000000D+01  0.0000000000D+00
  0.1742000000D+01  0.0000000000D+00
  0.5550000000D+00  0.0000000000D+00
  0.1725000000D+00  0.1000000000D+01
 p    1  1.00
  0.4910000000D-01  0.1000000000D+01
 d    1  1.00
  0.1654000000D+01  0.1000000000D+01
 d    1  1.00
  0.4690000000D+00  0.1000000000D+01
 d    1  1.00
  0.1510000000D+00  0.1000000000D+01
 f    1  1.00
  0.1093000000D+01  0.1000000000D+01
 f    1  1.00
  0.3640000000D+00  0.1000000000D+01
  
  2 0
 s   10  1.00
  0.1142000000D+05  0.5229996559D-03
  0.1712000000D+04  0.4044997339D-02
  0.3893000000D+03  0.2077498633D-01
  0.1100000000D+03  0.8072694689D-01
  0.3557000000D+02  0.2330738467D+00
  0.1254000000D+02  0.4335007148D+00
  0.4644000000D+01  0.3474717714D+00
  0.1293000000D+01  0.4126197285D-01
  0.5118000000D+00 -0.8507994403D-02
  0.1787000000D+00  0.2383998432D-02
 s   10  1.00
  0.1142000000D+05 -0.1149999544D-03
  0.1712000000D+04 -0.8949996452D-03
  0.3893000000D+03 -0.4623998167D-02
  0.1100000000D+03 -0.1852799265D-01
  0.3557000000D+02 -0.5733897727D-01
  0.1254000000D+02 -0.1320759476D+00
  0.4644000000D+01 -0.1725099316D+00
  0.1293000000D+01  0.1518139398D+00
  0.5118000000D+00  0.5999437621D+00
  0.1787000000D+00  0.3874618464D+00
 s   10  1.00
  0.1142000000D+05  0.0000000000D+00
  0.1712000000D+04  0.0000000000D+00
  0.3893000000D+03  0.0000000000D+00
  0.1100000000D+03  0.0000000000D+00
  0.3557000000D+02  0.0000000000D+00
  0.1254000000D+02  0.0000000000D+00
  0.4644000000D+01  0.0000000000D+00
  0.1293000000D+01  0.1000000000D+01
  0.5118000000D+00  0.0000000000D+00
  0.1787000000D+00  0.0000000000D+00
 s   10  1.00
  0.1142000000D+05  0.0000000000D+00
  0.1712000000D+04  0.0000000000D+00
  0.3893000000D+03  0.0000000000D+00
  0.1100000000D+03  0.0000000000D+00
  0.3557000000D+02  0.0000000000D+00
  0.1254000000D+02  0.0000000000D+00
  0.4644000000D+01  0.0000000000D+00
  0.1293000000D+01  0.0000000000D+00
  0.5118000000D+00  0.0000000000D+00
  0.1787000000D+00  0.1000000000D+01
 s    1  1.00
  0.5760000000D-01  0.1000000000D+01
 p    5  1.00
  0.2663000000D+02  0.1467000345D-01
  0.5948000000D+01  0.9176402155D-01
  0.1742000000D+01  0.2986830701D+00
  0.5550000000D+00  0.4984871171D+00
  0.1725000000D+00  0.3370230791D+00
 p    5  1.00
  0.2663000000D+02  0.0000000000D+00
  0.5948000000D+01  0.0000000000D+00
  0.1742000000D+01  0.0000000000D+00
  0.5550000000D+00  0.1000000000D+01
  0.1725000000D+00  0.0000000000D+00
 p    5  1.00
  0.2663000000D+02  0.0000000000D+00
  0.5948000000D+01  0.0000000000D+00
  0.1742000000D+01  0.0000000000D+00
  0.5550000000D+00  0.0000000000D+00
  0.1725000000D+00  0.1000000000D+01
 p    1  1.00
  0.4910000000D-01  0.1000000000D+01
 d    1  1.00
  0.1654000000D+01  0.1000000000D+01
 d    1  1.00
  0.4690000000D+00  0.1000000000D+01
 d    1  1.00
  0.1510000000D+00  0.1000000000D+01
 f    1  1.00
  0.1093000000D+01  0.1000000000D+01
 f    1  1.00
  0.3640000000D+00  0.1000000000D+01
  
  3 0
 s   10  1.00
  0.1533000000D+05  0.5079996682D-03
  0.2299000000D+04  0.3928997434D-02
  0.5224000000D+03  0.2024298678D-01
  0.1473000000D+03  0.7918094828D-01
  0.4755000000D+02  0.2306868493D+00
  0.1676000000D+02  0.4331177171D+00
  0.6207000000D+01  0.3502597712D+00
  0.1752000000D+01  0.4272797209D-01
  0.6882000000D+00 -0.8153994674D-02
  0.2384000000D+00  0.2380998445D-02
 s   10  1.00
  0.1533000000D+05 -0.1150000604D-03
  0.2299000000D+04 -0.8950004697D-03
  0.5224000000D+03 -0.4636002433D-02
  0.1473000000D+03 -0.1872400983D-01
  0.4755000000D+02 -0.5846303068D-01
  0.1676000000D+02 -0.1364630716D+00
  0.6207000000D+01 -0.1757400922D+00
  0.1752000000D+01  0.1609340845D+00
  0.6882000000D+00  0.6034183167D+00
  0.2384000000D+00  0.3787651988D+00
 s   10  1.00
  0.1533000000D+05  0.0000000000D+00
  0.2299000000D+04  0.0000000000D+00
  0.5224000000D+03  0.0000000000D+00
  0.1473000000D+03  0.0000000000D+00
  0.4755000000D+02  0.0000000000D+00
  0.1676000000D+02  0.0000000000D+00
  0.6207000000D+01  0.0000000000D+00
  0.1752000000D+01  0.1000000000D+01
  0.6882000000D+00  0.0000000000D+00
  0.2384000000D+00  0.0000000000D+00
 s   10  1.00
  0.1533000000D+05  0.0000000000D+00
  0.2299000000D+04  0.0000000000D+00
  0.5224000000D+03  0.0000000000D+00
  0.1473000000D+03  0.0000000000D+00
  0.4755000000D+02  0.0000000000D+00
  0.1676000000D+02  0.0000000000D+00
  0.6207000000D+01  0.0000000000D+00
  0.1752000000D+01  0.0000000000D+00
  0.6882000000D+00  0.0000000000D+00
  0.2384000000D+00  0.1000000000D+01
 s    1  1.00
  0.7376000000D-01  0.1000000000D+01
 p    5  1.00
  0.3446000000D+02  0.1592799074D-01
  0.7749000000D+01  0.9973994203D-01
  0.2280000000D+01  0.3104918195D+00
  0.7156000000D+00  0.4910257146D+00
  0.2140000000D+00  0.3363368045D+00
 p    5  1.00
  0.3446000000D+02  0.0000000000D+00
  0.7749000000D+01  0.0000000000D+00
  0.2280000000D+01  0.0000000000D+00
  0.7156000000D+00  0.1000000000D+01
  0.2140000000D+00  0.0000000000D+00
 p    5  1.00
  0.3446000000D+02  0.0000000000D+00
  0.7749000000D+01  0.0000000000D+00
  0.2280000000D+01  0.0000000000D+00
  0.7156000000D+00  0.0000000000D+00
  0.2140000000D+00  0.1000000000D+01
 p    1  1.00
  0.5974000000D-01  0.1000000000D+01
 d    1  1.00
  0.2314000000D+01  0.1000000000D+01
 d    1  1.00
  0.6450000000D+00  0.1000000000D+01
 d    1  1.00
  0.2140000000D+00  0.1000000000D+01
 f    1  1.00
  0.1428000000D+01  0.1000000000D+01
 f    1  1.00
  0.5000000000D+00  0.1000000000D+01
 
 
[MO]
 Sym=      1.1
 Ene=     -20.6585
 Spin= Alpha
 Occup=    2.000000
1 0.000005500960196
2 -0.000026779361929
3 -0.000242527260993
4 -0.005555049475965
5 -0.001945531864602
6 0.0
7 0.0
8 -0.000206779510064
9 0.0
10 0.0
11 0.000468253549355
12 0.0
13 0.0
14 -0.001249395169195
15 0.0
16 0.0
17 -0.000332022779705
18 -0.000002407854740
19 -0.000002407854741
20 0.000004815709481
21 0.0
22 0.0
23 0.0
24 -0.000357864244050
25 -0.000357864244048
26 0.000715728488097
27 0.0
28 0.0
29 0.0
30 -0.000117905702148
31 -0.000117905702147
32 0.000235811404294
33 0.0
34 0.0
35 0.0
36 0.0
37 0.0
38 0.000054973306589
39 0.0
40 0.0
41 -0.000036877215145
42 0.0
43 0.0
44 -0.000036877215144
45 0.0
46 0.0
47 0.0
48 0.000389207763738
49 0.0
50 0.0
51 -0.000261088505128
52 0.0
53 0.0
54 -0.000261088505126
55 0.0
56 0.000650725535889
57 0.002069104064307
58 -0.000706642429392
59 0.005605414429853
60 0.003501773427411
61 0.0
62 0.0
63 0.000053861873226
64 0.0
65 0.0
66 0.004238258186614
67 0.0
68 0.0
69 -0.004328034623890
70 0.0
71 0.0
72 -0.000104399987742
73 -0.000132834645483
74 -0.000132834645482
75 0.000265669290965
76 0.0
77 0.0
78 0.0
79 -0.000921720740362
80 -0.000921720740363
81 0.001843441480725
82 0.0
83 0.0
84 0.0
85 -0.000463595786582
86 -0.000463595786582
87 0.000927191573164
88 0.0
89 0.0
90 0.0
91 0.0
92 0.0
93 0.000218792967614
94 0.0
95 0.0
96 -0.000146770784575
97 0.0
98 0.0
99 -0.000146770784575
100 0.0
101 0.0
102 0.0
103 0.000119403564832
104 0.0
105 0.0
106 -0.000080098346318
107 0.0
108 0.0
109 -0.000080098346315
110 0.0
111 0.99838898092135
112 -0.004123028164661
113 0.001707234280981
114 0.000703317705383
115 -0.001844415219728
116 0.0
117 0.0
118 -0.007065173650564
119 0.0
120 0.0
121 0.007121232715382
122 0.0
123 0.0
124 0.003126242290059
125 0.0
126 0.0
127 0.000264509198941
128 -0.000068903498359
129 -0.000068903498359
130 0.000137806996719
131 0.0
132 0.0
133 0.0
134 0.000886530601414
135 0.000886530601413
136 -0.001773061202827
137 0.0
138 0.0
139 0.0
140 0.000173264765501
141 0.000173264765500
142 -0.000346529531001
143 0.0
144 0.0
145 0.0
146 0.0
147 0.0
148 0.000137616192692
149 0.0
150 0.0
151 -0.000092315748499
152 0.0
153 0.0
154 -0.000092315748499
155 0.0
156 0.0
157 0.0
158 0.000491309354671
159 0.0
160 0.0
161 -0.000329580334508
162 0.0
163 0.0
164 -0.000329580334508
165 0.0
 Sym=      2.1
 Ene=     -15.8462
 Spin= Alpha
 Occup=    2.000000
1 0.009005942680712
2 -0.000119973726375
3 0.000476736432527
4 -0.013558603330104
5 -0.006296852256599
6 0.0
7 0.0
8 0.001166130994006
9 0.0
10 0.0
11 -0.002129060220646
12 0.0
13 0.0
14 -0.006837427481472
15 0.0
16 0.0
17 -0.001160189285428
18 0.000094026176093
19 0.000094026176094
20 -0.000188052352187
21 0.0
22 0.0
23 0.0
24 0.000699920367206
25 0.000699920367206
26 -0.001399840734412
27 0.0
28 0.0
29 0.0
30 0.000527520874406
31 0.000527520874405
32 -0.001055041748811
33 0.0
34 0.0
35 0.0
36 0.0
37 0.0
38 -0.000363902863902
39 0.0
40 0.0
41 0.000244113462268
42 0.0
43 0.0
44 0.000244113462268
45 0.0
46 0.0
47 0.0
48 -0.000425747583909
49 0.0
50 0.0
51 0.000285600161663
52 0.0
53 0.0
54 0.000285600161663
55 0.0
56 0.99952618336498
57 0.000510286497996
58 0.001275031565475
59 0.009865254408073
60 0.006532007132729
61 0.0
62 0.0
63 0.001928820135946
64 0.0
65 0.0
66 -0.004633510344172
67 0.0
68 0.0
69 -0.007868757539761
70 0.0
71 0.0
72 -0.001207283210646
73 -0.000494011377606
74 -0.000494011377606
75 0.000988022755212
76 0.0
77 0.0
78 0.0
79 0.000289959036191
80 0.000289959036191
81 -0.000579918072382
82 0.0
83 0.0
84 0.0
85 -0.000687073029657
86 -0.000687073029655
87 0.001374146059312
88 0.0
89 0.0
90 0.0
91 0.0
92 0.0
93 -0.000384449431970
94 0.0
95 0.0
96 0.000257896519139
97 0.0
98 0.0
99 0.000257896519139
100 0.0
101 0.0
102 0.0
103 -0.000151895927498
104 0.0
105 0.0
106 0.000101894885817
107 0.0
108 0.0
109 0.000101894885818
110 0.0
111 0.000220872094170
112 0.001566887427191
113 -0.000242692267779
114 0.002123712590298
115 -0.000052378194547
116 0.0
117 0.0
118 -0.000506070339171
119 0.0
120 0.0
121 -0.001081498020059
122 0.0
123 0.0
124 -0.001520931403055
125 0.0
126 0.0
127 0.000133284422800
128 -0.000053718125972
129 -0.000053718125972
130 0.000107436251944
131 0.0
132 0.0
133 0.0
134 -0.000161759802861
135 -0.000161759802860
136 0.000323519605721
137 0.0
138 0.0
139 0.0
140 -0.000180732941447
141 -0.000180732941449
142 0.000361465882896
143 0.0
144 0.0
145 0.0
146 0.0
147 0.0
148 0.000075980860096
149 0.0
150 0.0
151 -0.000050969510449
152 0.0
153 0.0
154 -0.000050969510449
155 0.0
156 0.0
157 0.0
158 0.000140821236248
159 0.0
160 0.0
161 -0.000094465757078
162 0.0
163 0.0
164 -0.000094465757078
165 0.0
 Sym=      3.1
 Ene=     -15.6997
 Spin= Alpha
 Occup=    2.000000
1 0.99977744308079
2 0.000556491558227
3 0.001044754300257
4 0.011381554447486
5 -0.001708093023617
6 0.0
7 0.0
8 0.008282442840944
9 0.0
10 0.0
11 -0.005065773484000
12 0.0
13 0.0
14 0.001761832912376
15 0.0
16 0.0
17 -0.000244141344696
18 -0.000371767883001
19 -0.000371767883001
20 0.000743535766003
21 0.0
22 0.0
23 0.0
24 0.000397623257773
25 0.000397623257773
26 -0.000795246515546
27 0.0
28 0.0
29 0.0
30 -0.000235250870278
31 -0.000235250870279
32 0.000470501740557
33 0.0
34 0.0
35 0.0
36 0.0
37 0.0
38 0.000150334032758
39 0.0
40 0.0
41 -0.000100847134974
42 0.0
43 0.0
44 -0.000100847134974
45 0.0
46 0.0
47 0.0
48 -0.000463930807924
49 0.0
50 0.0
51 0.000311214247012
52 0.0
53 0.0
54 0.000311214247012
55 0.0
56 -0.008854991775457
57 0.002474080773848
58 0.000178685763501
59 -0.011420145270346
60 0.002432371745204
61 0.0
62 0.0
63 -0.001450745448729
64 0.0
65 0.0
66 0.000185747467024
67 0.0
68 0.0
69 0.010300961776136
70 0.0
71 0.0
72 -0.000479665424662
73 -0.000002386504113
74 -0.000002386504113
75 0.000004773008226
76 0.0
77 0.0
78 0.0
79 0.000337676764380
80 0.000337676764380
81 -0.000675353528760
82 0.0
83 0.0
84 0.0
85 -0.000180183775706
86 -0.000180183775706
87 0.000360367551412
88 0.0
89 0.0
90 0.0
91 0.0
92 0.0
93 0.000520104532893
94 0.0
95 0.0
96 -0.000348896727286
97 0.0
98 0.0
99 -0.000348896727286
100 0.0
101 0.0
102 0.0
103 0.001256992696259
104 0.0
105 0.0
106 -0.000843216334817
107 0.0
108 0.0
109 -0.000843216334817
110 0.0
111 -0.000508470187606
112 -0.001640440408639
113 0.000265224171389
114 -0.002391810377541
115 -0.000707510148144
116 0.0
117 0.0
118 0.000057549654157
119 0.0
120 0.0
121 0.000455052166758
122 0.0
123 0.0
124 -0.000868545577711
125 0.0
126 0.0
127 0.000194278280065
128 0.000043975532647
129 0.000043975532647
130 -0.000087951065294
131 0.0
132 0.0
133 0.0
134 -0.000010901747852
135 -0.000010901747852
136 0.000021803495704
137 0.0
138 0.0
139 0.0
140 -0.000483369444108
141 -0.000483369444107
142 0.000966738888216
143 0.0
144 0.0
145 0.0
146 0.0
147 0.0
148 0.000097462794265
149 0.0
150 0.0
151 -0.000065380029976
152 0.0
153 0.0
154 -0.000065380029976
155 0.0
156 0.0
157 0.0
158 -0.000077001627963
159 0.0
160 0.0
161 0.000051654262351
162 0.0
163 0.0
164 0.000051654262351
165 0.0
 Sym=      4.1
 Ene=      -1.6145
 Spin= Alpha
 Occup=    2.000000
1 -0.007584844935373
2 0.28297064523048
3 -0.002199165719026
4 0.002925379542082
5 0.046475234777294
6 0.0
7 0.0
8 0.15857441716799
9 0.0
10 0.0
11 -0.008245720562502
12 0.0
13 0.0
14 -0.029052376602497
15 0.0
16 0.0
17 0.003910894411959
18 -0.005424789543632
19 -0.005424789543632
20 0.010849579087265
21 0.0
22 0.0
23 0.0
24 -0.004543459967476
25 -0.004543459967476
26 0.009086919934952
27 0.0
28 0.0
29 0.0
30 0.001999579731921
31 0.001999579731921
32 -0.003999159463842
33 0.0
34 0.0
35 0.0
36 0.0
37 0.0
38 0.003453714044737
39 0.0
40 0.0
41 -0.002316821813663
42 0.0
43 0.0
44 -0.002316821813663
45 0.0
46 0.0
47 0.0
48 -0.003773130543078
49 0.0
50 0.0
51 0.002531092914691
52 0.0
53 0.0
54 0.002531092914690
55 0.0
56 -0.013588709923873
57 0.68225926532789
58 0.000963020368292
59 -0.24852183059305
60 -0.052123964831425
61 0.0
62 0.0
63 0.088095584219585
64 0.0
65 0.0
66 -0.000774073620873
67 0.0
68 0.0
69 0.009691718977730
70 0.0
71 0.0
72 0.017123099043249
73 -0.010891332455037
74 -0.010891332455037
75 0.021782664910073
76 0.0
77 0.0
78 0.0
79 -0.006068773287066
80 -0.006068773287066
81 0.012137546574132
82 0.0
83 0.0
84 0.0
85 0.011476111497757
86 0.011476111497757
87 -0.022952222995514
88 0.0
89 0.0
90 0.0
91 0.0
92 0.0
93 0.002884881469345
94 0.0
95 0.0
96 -0.001935237321745
97 0.0
98 0.0
99 -0.001935237321745
100 0.0
101 0.0
102 0.0
103 0.000878348023435
104 0.0
105 0.0
106 -0.000589213766491
107 0.0
108 0.0
109 -0.000589213766491
110 0.0
111 -0.007393706212179
112 0.57940160053549
113 -0.006747195965957
114 -0.046212398999318
115 -0.010375329573555
116 0.0
117 0.0
118 -0.18748105372294
119 0.0
120 0.0
121 -0.006630695854673
122 0.0
123 0.0
124 0.047233862536523
125 0.0
126 0.0
127 0.004674513401647
128 -0.004778350391258
129 -0.004778350391258
130 0.009556700782517
131 0.0
132 0.0
133 0.0
134 -0.009803500763067
135 -0.009803500763067
136 0.019607001526133
137 0.0
138 0.0
139 0.0
140 0.002482641919446
141 0.002482641919446
142 -0.004965283838893
143 0.0
144 0.0
145 0.0
146 0.0
147 0.0
148 -0.005787424732653
149 0.0
150 0.0
151 0.003882322535063
152 0.0
153 0.0
154 0.003882322535063
155 0.0
156 0.0
157 0.0
158 -0.000655057543725
159 0.0
160 0.0
161 0.000439425959083
162 0.0
163 0.0
164 0.000439425959083
165 0.0
 Sym=      5.1
 Ene=      -1.4241
 Spin= Alpha
 Occup=    2.000000
1 0.014278086639720
2 -0.56997451171766
3 0.004787189224613
4 0.081996166657056
5 -0.031241116604265
6 0.0
7 0.0
8 -0.27631412107669
9 0.0
10 0.0
11 0.021249258164902
12 0.0
13 0.0
14 0.069913907571948
15 0.0
16 0.0
17 0.001082096271925
18 0.008617431057040
19 0.008617431057040
20 -0.017234862114079
21 0.0
22 0.0
23 0.0
24 0.010270273461168
25 0.010270273461168
26 -0.020540546922336
27 0.0
28 0.0
29 0.0
30 -0.002470893047718
31 -0.002470893047719
32 0.004941786095437
33 0.0
34 0.0
35 0.0
36 0.0
37 0.0
38 -0.007750048812768
39 0.0
40 0.0
41 0.005198890792287
42 0.0
43 0.0
44 0.005198890792287
45 0.0
46 0.0
47 0.0
48 -0.000477475013106
49 0.0
50 0.0
51 0.000320299976058
52 0.0
53 0.0
54 0.000320299976058
55 0.0
56 0.005128457637815
57 -0.27808940229077
58 0.000015802200251
59 0.081995146558924
60 0.041162947879438
61 0.0
62 0.0
63 0.55405612641909
64 0.0
65 0.0
66 -0.059586206784178
67 0.0
68 0.0
69 -0.18486448026430
70 0.0
71 0.0
72 -0.016589453891846
73 0.002958076856170
74 0.002958076856170
75 -0.005916153712341
76 0.0
77 0.0
78 0.0
79 -0.001700929225751
80 -0.001700929225751
81 0.003401858451502
82 0.0
83 0.0
84 0.0
85 -0.005844078266313
86 -0.005844078266312
87 0.011688156532624
88 0.0
89 0.0
90 0.0
91 0.0
92 0.0
93 0.011551248627950
94 0.0
95 0.0
96 -0.007748813147130
97 0.0
98 0.0
99 -0.007748813147129
100 0.0
101 0.0
102 0.0
103 -0.003841797398813
104 0.0
105 0.0
106 0.002577156041858
107 0.0
108 0.0
109 0.002577156041858
110 0.0
111 -0.006141827650399
112 0.48621124209552
113 -0.003171227281936
114 -0.021248703574147
115 0.001865667845051
116 0.0
117 0.0
118 -0.097679030662328
119 0.0
120 0.0
121 0.000704760830960
122 0.0
123 0.0
124 0.008797545311906
125 0.0
126 0.0
127 0.004957302143739
128 -0.002280289681612
129 -0.002280289681612
130 0.004560579363224
131 0.0
132 0.0
133 0.0
134 -0.006070819816347
135 -0.006070819816347
136 0.012141639632695
137 0.0
138 0.0
139 0.0
140 -0.001207565475553
141 -0.001207565475552
142 0.002415130951105
143 0.0
144 0.0
145 0.0
146 0.0
147 0.0
148 -0.003610076681914
149 0.0
150 0.0
151 0.002421713059424
152 0.0
153 0.0
154 0.002421713059424
155 0.0
156 0.0
157 0.0
158 -0.004264617788961
159 0.0
160 0.0
161 0.002860792582252
162 0.0
163 0.0
164 0.002860792582251
165 0.0
 Sym=      6.1
 Ene=      -0.8343
 Spin= Alpha
 Occup=    2.000000
1 -0.000311139561678
2 0.35146656633820
3 0.001523868703254
4 0.045562289799191
5 -0.007677801782464
6 0.0
7 0.0
8 -0.10432434712003
9 0.0
10 0.0
11 -0.004531590396292
12 0.0
13 0.0
14 0.015967874680783
15 0.0
16 0.0
17 -0.007171652978067
18 0.000959796935158
19 0.000959796935158
20 -0.001919593870316
21 0.0
22 0.0
23 0.0
24 0.003492942001721
25 0.003492942001721
26 -0.006985884003441
27 0.0
28 0.0
29 0.0
30 -0.000080234388790
31 -0.000080234388790
32 0.000160468777580
33 0.0
34 0.0
35 0.0
36 0.0
37 0.0
38 -0.000050050445238
39 0.0
40 0.0
41 0.000033574859357
42 0.0
43 0.0
44 0.000033574859357
45 0.0
46 0.0
47 0.0
48 -0.000243065939117
49 0.0
50 0.0
51 0.000163053588864
52 0.0
53 0.0
54 0.000163053588864
55 0.0
56 -0.003933515218557
57 -0.45891257334560
58 -0.003189286767168
59 -0.004756002685053
60 0.005252976350546
61 0.0
62 0.0
63 -0.31990481422203
64 0.0
65 0.0
66 -0.001813698742448
67 0.0
68 0.0
69 0.089669428078315
70 0.0
71 0.0
72 0.003002758505799
73 0.002233278964986
74 0.002233278964986
75 -0.004466557929971
76 0.0
77 0.0
78 0.0
79 -0.000794834070132
80 -0.000794834070132
81 0.001589668140264
82 0.0
83 0.0
84 0.0
85 0.005794450031776
86 0.005794450031777
87 -0.011588900063553
88 0.0
89 0.0
90 0.0
91 0.0
92 0.0
93 -0.008021439605260
94 0.0
95 0.0
96 0.005380945270431
97 0.0
98 0.0
99 0.005380945270431
100 0.0
101 0.0
102 0.0
103 0.006122989911223
104 0.0
105 0.0
106 -0.004107426500112
107 0.0
108 0.0
109 -0.004107426500112
110 0.0
111 0.004323288172136
112 0.56260961054847
113 0.003302873812963
114 0.13907067392640
115 0.030284438854617
116 0.0
117 0.0
118 0.57302176466553
119 0.0
120 0.0
121 -0.016930682816148
122 0.0
123 0.0
124 -0.070918930860660
125 0.0
126 0.0
127 0.000687786394827
128 0.006564109532134
129 0.006564109532134
130 -0.013128219064267