[Molden Format]
[Molpro variables]
_NUMVAR=  783.0000000000000    
_AVOGAD= 0.6022136736000000E+24
_BOLTZ= 0.1380658000000000E-22
_CLIGHT=  29979245800.00000    
_EV2006= 0.3674930886769165E-01
_EV= 0.3674932534394180E-01
_ENULL= 0.8854187817000000E-11
_KJOULE= 0.3808798324128737E-03
_KJOULE/MOL= 0.3808798324128737E-03
_CM= 0.4556335267302901E-05
_CM-1= 0.4556335267302901E-05
_DEB2SI= 0.3335641000000000E-29
_AMU2AU=  1822.888390000000    
_KCAL= 0.1593601117815568E-02
_KCAL/MOL= 0.1593601117815568E-02
_KELVIN2006= 0.3166828861084835E-05
_KELVIN= 0.3166814820820034E-05
_JOULE= 0.4359748200000000E-17
_HERTZ2006= 0.1519829850815779E-15
_HERTZ= 0.1519829846011223E-15
_HZ2006= 0.1519829850815779E-15
_HZ= 0.1519829846011223E-15
_JPCAL=  4.184000000000000    
_PLANCK= 0.6626075540000000E-33
_TOA2006= 0.5291772490000000    
_TOA= 0.5291772090000000    
_TOANG2006= 0.5291772490000000    
_TOANG= 0.5291772090000000    
_TORAD= 0.1745329251994330E-01
_TOCM=  219474.6306700000    
_TODEBYE=  2.541580000000000    
_TOEV2006=  27.21139610000000    
_TOE= 0.4803242000000000E-09
_TOEV=  27.21138390000000    
_TOHERTZ2006=  6579683899900000.    
_TOHERTZ=  6579683920700000.    
_TOHZ2006=  6579683899900000.    
_TOHZ=  6579683920700000.    
_TOK2006=  315773.3000000000    
_TOK=  315774.7000000000    
_TOKCAL=  627.5096000000000    
_TOKELVIN2006=  315773.3000000000    
_TOKELVIN=  315774.7000000000    
_TOKJ=  2625.500000000000    
_TOKJOULE=  2625.500000000000    
_TOKG= 0.1660565586000000E-26
_ANG2006=  1.889725988578923    
_ANG=  1.889726131421507    
_ANGSTROM2006=  1.889725988578923    
_ANGSTROM=  1.889726131421507    
_RPAREF=  0.000000000000000    
_RPADISS=  0.000000000000000    
_IGNORE_UNDEF=  2.000000000000000    
_STRICTCHECK=  0.000000000000000    
_SEW_ONEEL=  0.000000000000000    
_CPPDONE=FALSE
_DKROLL_DONE=  0.000000000000000    
_FOCKDONE=TRUE
_GRADONE=FALSE
_HESSDONE=FALSE
_INTDONE=TRUE
_SCFDONE=TRUE
_MODUL_BLOCK=FALSE
_MODUL_CUDA=FALSE
_MODUL_SLATER=FALSE
_MODUL_MRCC=FALSE
_MODUL_NBO6=FALSE
_MODUL_NECI=TRUE
_MODUL_AIMS=TRUE
_MRCC_EXEC=
_FITC_AO_SAVED=FALSE
_FITC_MO_SAVED=FALSE
_SHARED_FS=TRUE
_LSTYP=SEWARD
_INTYP=INTS
_GEOMTYP=ZMAT
_GRADTYP=ALASKA
_DIRECT=FALSE
_DKHO= -1.000000000000000    
_SYNCM=  0.000000000000000    
_BASIS=AVQZ
_ZORIENT=  1.000000000000000    
_NELEC=  19.00000000000000    
!SPIN=  1.000000000000000    
_QSDSTEP=  0.000000000000000    
_QSDIRC=  0.000000000000000    
_PROGRAM=RHF-SCF
_CPUSTEP= 0.5000000000000004E-01
_SYSSTEP= 0.9999999999999981E-02
_WALLSTEP= 0.7000000000000001E-01
!DFSCF=  0.000000000000000    
!SCSGRD=  0.000000000000000    
_BASINP=  610.0000000000000    
_CPUTOT=  1.320000000000000    
_CPUSORT= 0.6700000000000000    
_SYSSORT= 0.9000000000000001E-01
_WALLSORT= 0.7700000004842877    
_DFTEXFAC=  1.000000000000000    
_DMX=  0.000000000000000    
_DMY=  0.000000000000000    
_DMZ=  0.000000000000000    
_DMX_SCF=  0.000000000000000    
_DMY_SCF=  0.000000000000000    
_DMZ_SCF=  0.000000000000000    
_EHOMO=-0.2893663389886352    
_ELUMO= 0.2875033687216925    
_ENERGY= -198.8581184365792    
_ENUC=  22.50000888644064    
_GRADEXFAC=  9999.000000000000    
_GRADMETHOD=  2.000000000000000    
_NMRMETHOD=  0.000000000000000    
!GRID_FREEZE= -1.000000000000000    
_ITERATIONS=  10.00000000000000    
_LASTNELEC=  19.00000000000000    
_LASTSPIN=  1.000000000000000    
_LASTSYM=  5.000000000000000    
_MPP_PROG=  1.000000000000000    
_NPROC_MPP=  10.00000000000000    
_NPROC_MPPX=  10.00000000000000    
_NPROC_SMP=  1.000000000000000    
_NUMSTEP=  0.000000000000000    
_ORBITAL=  2100.200000000000    
_PI=  3.141592653589793    
_SEIG_MIN= 0.4868434731775915E-03
_SEWPROP=TRUE
_STATUS=  1.000000000000000    
_SYSTOT= 0.1600000000000000    
_VERSION=  2012001.000000000    
_WALLTOT=  2.360000000000000    
_DATE=08-Oct-17
_LASTORB=RHF
_MACHINE=Linux-2.6.32-696.10.3.el6.x86_64/nxt1601(x86_64) 64 bit mpp version
_OUTPUT=/scratch/user/r-lucchese/H2ONormMode6347/molpro.xml
_PGROUP=D2h
_TIME=16:56:10
_LIBMOL=/general/software/x86_64/lms/molpro-2012.1_patch_level-16/lib/
!VIBCNT=  0.000000000000000    
!RGHFCNT=  0.000000000000000    
!SURFREC=  0.000000000000000    
!POLYREC=  0.000000000000000    
!DIPREC=  0.000000000000000    
!VSCFREC=  0.000000000000000    
!VCIREC=  0.000000000000000    
!PVCIREC=  0.000000000000000    
!VMP2REC=  0.000000000000000    
!VMCSCFREC=  0.000000000000000    
!VMRCIREC=  0.000000000000000    
!VIBINFO=  0.000000000000000    
!GAREC=  0.000000000000000    
!SCFORB=  21002.00000000000    
!NEWMOL= -1.000000000000000    
!NEWSYM= -1.000000000000000    
_SLFILES=slscratch
_NGSSTO=  9.000000000000000    
_SIN=SIN
_COS=COS
_TAN=TAN
_ACOS=ACOS
_ASIN=ASIN
_ATAN=ATAN
_COSH=COSH
_SINH=SINH
_TANH=TANH
_ABS=ABS
_MOD=MOD
_ERF=ERF
_REFC=REFC
_ERFC=ERFC
_HYPOT=HYPOT
_J0=J0
_J1=J1
_JN=JN
_GAMMA=GAMMA
_LGAMMA=LGAMMA
_Y0=Y0
_Y1=Y1
_YN=YN
_EXP=EXP
_LOG=LOG
_LOG10=LOG10
_SQRT=SQRT
_INT=INT
_NINT=NINT
_MAX=MAX
_MIN=MIN
_COSMO=  0.000000000000000    
_COSMOIT=  0.000000000000000    
_COSMOES=  0.000000000000000    
_COSMOEDS=  0.000000000000000    
_COSMOEC=  0.000000000000000    
_COSMOEDCORR=  0.000000000000000    
_FEPSI=  1.000000000000000    
_SL_IsMM=  0.000000000000000    
_SL_NSYM=  8.000000000000000    
_SL_System_BitSw=  0.000000000000000    
_SL_Unique_atoms=  0.000000000000000    
_SL_GRAD=  0.000000000000000    
_SL_MAXUPD_Hess=  5.000000000000000    
_SL_N_PRINT_COD=  5.000000000000000    
_SL_PRINT_CODES=  0.000000000000000    
_SL_BasType=  0.000000000000000    
_SL_Energy_Pred=  0.000000000000000    
_SL_New_Coords=  0.000000000000000    
_SL_Total_Nuclea=  0.000000000000000    
_SL_Highest_Mltp=  0.000000000000000    
_SL_Ref_Geom=  0.000000000000000    
_SL_Symmetry_ope=  1.000000000000000    
_SL_agrad=  0.000000000000000    
_SL_GrdMax=  0.000000000000000    
_SL_GrdNorm=  0.000000000000000    
_SL_GrdRMS=  0.000000000000000    
_SL_Hss_Q=  0.000000000000000    
_SL_Hss_X=  0.000000000000000    
_SL_BMxOld=  0.000000000000000    
_SL_KtB=  0.000000000000000    
!LATTICE= -1.000000000000000    
!NEWLATTICE=  0.000000000000000    
!LATGRAD_VAR=FALSE
!SEW_LATTICE=  1.000000000000000    
!LOCAL=  0.000000000000000    
!SAVEDOM= -1.000000000000000    
!RESTDOM= -1.000000000000000    
!SAVEDOM_HF= -1.000000000000000    
!RESTDOM_HF= -1.000000000000000    
!HESSREC=  0.000000000000000    
!FREQREC=  0.000000000000000    
!NMODREC=  0.000000000000000    
!GTASKS=  0.000000000000000    
!HTASKS=  0.000000000000000    
!THRCHG= 0.1000000000000000    
!DEBUG= -1.000000000000000    
!CFIT_CPHF=  0.000000000000000    
!RDOMAUX_CPHF=  3.000000000000000    
!THRAO_CPHF= 0.1000000000000000E-09
!THRMO_CPHF= 0.1000000000000000E-08
!THROV_CPHF= 0.1000000000000000E-11
!THRSW_CPHF= 0.1000000000000000E-09
!THRPROD_CPHF= 0.1000000000000000E-08
!THRAOPR_CPHF= 0.1000000000000000E-11
!CFIT_SCFGRD=  0.000000000000000    
!RDOMAUX_SCFGRD=  5.000000000000000    
!THRAO_SCFGRD= 0.1000000000000000E-09
!THRMO_SCFGRD= 0.1000000000000000E-08
!THROV_SCFGRD= 0.1000000000000000E-11
!THRSW_SCFGRD= 0.1000000000000000E-09
!THRPROD_SCFGRD= 0.1000000000000000E-08
!THRAOPR_SCFGRD= 0.1000000000000000E-11
!LOCFIT_SCF=  0.000000000000000    
!LOCFIT_MP2= -1.000000000000000    
_RIDOM=  0.000000000000000    
!CC2_METHOD=  0.000000000000000    
_BASIS2006=FALSE
_SVDDEL= -1.000000000000000    
_SVDDELA= -1.000000000000000    
_SVDDELP= -1.000000000000000    
_SVDDELF= -1.000000000000000    
_SVDDELS= -1.000000000000000    
_SVDDEL_ABS= -1.000000000000000    
_SVDDELA_ABS= -1.000000000000000    
_SVDDELP_ABS= -1.000000000000000    
_SVDDELF_ABS= -1.000000000000000    
_SVDDELS_ABS= -1.000000000000000    
_MAXBASIS=  0.000000000000000    
!OPT_CONICAL=  0.000000000000000    
!CLEARSP_JGRID=  0.000000000000000    
_4EXT_NDISKS=  1.000000000000000    
!ZMP=  0.000000000000000    
_MAXIT_ZMP=  500.0000000000000    
_MAXDIS_ZMP=  100.0000000000000    
_ACCU_ZMP=  14.00000000000000    
_SHIFTA_ZMP= -100.0000000000000    
!EMBEDFLAG=  1.000000000000000    
!EMBED=FALSE
!EMBED_F12=FALSE
!EMBEDNUC=  0.000000000000000    
_EMBEDENERGY=  0.000000000000000    
_KSPACETIME=  0.000000000000000    
_RSPACETIME=  0.000000000000000    
!EMBED_DFC=FALSE
!NUM_VOIDS=  0.000000000000000    
_IBODY=  0.000000000000000    
_EMBE_TOTAL=  0.000000000000000    
_EMBE_HF=  0.000000000000000    
_EMBE_CORR=  0.000000000000000    
!EDFT=  0.000000000000000    
_IFASTLATGRAD=  0.000000000000000    
_SINDEX=  0.000000000000000    
GEOMTYP=XYZ
GX1=  0.000000000000000    
GY1=  0.000000000000000    
GZ1=-0.9525186000000000    
GX2=  0.000000000000000    
GY2=  0.000000000000000    
GZ2= 0.9525186000000000    
[Atoms] Angs
F     1    9         0.0000000000        0.0000000000       -0.9525186000
F     2    9         0.0000000000        0.0000000000        0.9525186000
[GTO]
  1 0
 s   12  1.00
  0.7453000000D+05  0.9500010373D-04
  0.1117000000D+05  0.7380008058D-03
  0.2543000000D+04  0.3858004212D-02
  0.7210000000D+03  0.1592601739D-01
  0.2359000000D+03  0.5428905928D-01
  0.8560000000D+02  0.1495131632D+00
  0.3355000000D+02  0.3082523366D+00
  0.1393000000D+02  0.3948534311D+00
  0.5915000000D+01  0.2110312304D+00
  0.1843000000D+01  0.1715101873D-01
  0.7124000000D+00 -0.2015002200D-02
  0.2637000000D+00  0.8690009488D-03
 s   12  1.00
  0.7453000000D+05 -0.2199999390D-04
  0.1117000000D+05 -0.1719999523D-03
  0.2543000000D+04 -0.8909997530D-03
  0.7210000000D+03 -0.3747998961D-02
  0.2359000000D+03 -0.1286199643D-01
  0.8560000000D+02 -0.3806098945D-01
  0.3355000000D+02 -0.8623897609D-01
  0.1393000000D+02 -0.1558649568D+00
  0.5915000000D+01 -0.1109139693D+00
  0.1843000000D+01  0.2987609172D+00
  0.7124000000D+00  0.5850128378D+00
  0.2637000000D+00  0.2711589248D+00
 s   12  1.00
  0.7453000000D+05  0.0000000000D+00
  0.1117000000D+05  0.0000000000D+00
  0.2543000000D+04  0.0000000000D+00
  0.7210000000D+03  0.0000000000D+00
  0.2359000000D+03  0.0000000000D+00
  0.8560000000D+02  0.0000000000D+00
  0.3355000000D+02  0.0000000000D+00
  0.1393000000D+02  0.0000000000D+00
  0.5915000000D+01  0.0000000000D+00
  0.1843000000D+01  0.1000000000D+01
  0.7124000000D+00  0.0000000000D+00
  0.2637000000D+00  0.0000000000D+00
 s   12  1.00
  0.7453000000D+05  0.0000000000D+00
  0.1117000000D+05  0.0000000000D+00
  0.2543000000D+04  0.0000000000D+00
  0.7210000000D+03  0.0000000000D+00
  0.2359000000D+03  0.0000000000D+00
  0.8560000000D+02  0.0000000000D+00
  0.3355000000D+02  0.0000000000D+00
  0.1393000000D+02  0.0000000000D+00
  0.5915000000D+01  0.0000000000D+00
  0.1843000000D+01  0.0000000000D+00
  0.7124000000D+00  0.1000000000D+01
  0.2637000000D+00  0.0000000000D+00
 s   12  1.00
  0.7453000000D+05  0.0000000000D+00
  0.1117000000D+05  0.0000000000D+00
  0.2543000000D+04  0.0000000000D+00
  0.7210000000D+03  0.0000000000D+00
  0.2359000000D+03  0.0000000000D+00
  0.8560000000D+02  0.0000000000D+00
  0.3355000000D+02  0.0000000000D+00
  0.1393000000D+02  0.0000000000D+00
  0.5915000000D+01  0.0000000000D+00
  0.1843000000D+01  0.0000000000D+00
  0.7124000000D+00  0.0000000000D+00
  0.2637000000D+00  0.1000000000D+01
 s    1  1.00
  0.8594000000D-01  0.1000000000D+01
 p    6  1.00
  0.8039000000D+02  0.6346999640D-02
  0.1863000000D+02  0.4420399749D-01
  0.5694000000D+01  0.1685139904D+00
  0.1953000000D+01  0.3615629795D+00
  0.6702000000D+00  0.4421779749D+00
  0.2166000000D+00  0.2434349862D+00
 p    6  1.00
  0.8039000000D+02  0.0000000000D+00
  0.1863000000D+02  0.0000000000D+00
  0.5694000000D+01  0.0000000000D+00
  0.1953000000D+01  0.1000000000D+01
  0.6702000000D+00  0.0000000000D+00
  0.2166000000D+00  0.0000000000D+00
 p    6  1.00
  0.8039000000D+02  0.0000000000D+00
  0.1863000000D+02  0.0000000000D+00
  0.5694000000D+01  0.0000000000D+00
  0.1953000000D+01  0.0000000000D+00
  0.6702000000D+00  0.1000000000D+01
  0.2166000000D+00  0.0000000000D+00
 p    6  1.00
  0.8039000000D+02  0.0000000000D+00
  0.1863000000D+02  0.0000000000D+00
  0.5694000000D+01  0.0000000000D+00
  0.1953000000D+01  0.0000000000D+00
  0.6702000000D+00  0.0000000000D+00
  0.2166000000D+00  0.1000000000D+01
 p    1  1.00
  0.6568000000D-01  0.1000000000D+01
 d    1  1.00
  0.5014000000D+01  0.1000000000D+01
 d    1  1.00
  0.1725000000D+01  0.1000000000D+01
 d    1  1.00
  0.5860000000D+00  0.1000000000D+01
 d    1  1.00
  0.2070000000D+00  0.1000000000D+01
 f    1  1.00
  0.3562000000D+01  0.1000000000D+01
 f    1  1.00
  0.1148000000D+01  0.1000000000D+01
 f    1  1.00
  0.4600000000D+00  0.1000000000D+01
 g    1  1.00
  0.2376000000D+01  0.1000000000D+01
 g    1  1.00
  0.9240000000D+00  0.1000000000D+01
  
  2 0
 s   12  1.00
  0.7453000000D+05  0.9500010373D-04
  0.1117000000D+05  0.7380008058D-03
  0.2543000000D+04  0.3858004212D-02
  0.7210000000D+03  0.1592601739D-01
  0.2359000000D+03  0.5428905928D-01
  0.8560000000D+02  0.1495131632D+00
  0.3355000000D+02  0.3082523366D+00
  0.1393000000D+02  0.3948534311D+00
  0.5915000000D+01  0.2110312304D+00
  0.1843000000D+01  0.1715101873D-01
  0.7124000000D+00 -0.2015002200D-02
  0.2637000000D+00  0.8690009488D-03
 s   12  1.00
  0.7453000000D+05 -0.2199999390D-04
  0.1117000000D+05 -0.1719999523D-03
  0.2543000000D+04 -0.8909997530D-03
  0.7210000000D+03 -0.3747998961D-02
  0.2359000000D+03 -0.1286199643D-01
  0.8560000000D+02 -0.3806098945D-01
  0.3355000000D+02 -0.8623897609D-01
  0.1393000000D+02 -0.1558649568D+00
  0.5915000000D+01 -0.1109139693D+00
  0.1843000000D+01  0.2987609172D+00
  0.7124000000D+00  0.5850128378D+00
  0.2637000000D+00  0.2711589248D+00
 s   12  1.00
  0.7453000000D+05  0.0000000000D+00
  0.1117000000D+05  0.0000000000D+00
  0.2543000000D+04  0.0000000000D+00
  0.7210000000D+03  0.0000000000D+00
  0.2359000000D+03  0.0000000000D+00
  0.8560000000D+02  0.0000000000D+00
  0.3355000000D+02  0.0000000000D+00
  0.1393000000D+02  0.0000000000D+00
  0.5915000000D+01  0.0000000000D+00
  0.1843000000D+01  0.1000000000D+01
  0.7124000000D+00  0.0000000000D+00
  0.2637000000D+00  0.0000000000D+00
 s   12  1.00
  0.7453000000D+05  0.0000000000D+00
  0.1117000000D+05  0.0000000000D+00
  0.2543000000D+04  0.0000000000D+00
  0.7210000000D+03  0.0000000000D+00
  0.2359000000D+03  0.0000000000D+00
  0.8560000000D+02  0.0000000000D+00
  0.3355000000D+02  0.0000000000D+00
  0.1393000000D+02  0.0000000000D+00
  0.5915000000D+01  0.0000000000D+00
  0.1843000000D+01  0.0000000000D+00
  0.7124000000D+00  0.1000000000D+01
  0.2637000000D+00  0.0000000000D+00
 s   12  1.00
  0.7453000000D+05  0.0000000000D+00
  0.1117000000D+05  0.0000000000D+00
  0.2543000000D+04  0.0000000000D+00
  0.7210000000D+03  0.0000000000D+00
  0.2359000000D+03  0.0000000000D+00
  0.8560000000D+02  0.0000000000D+00
  0.3355000000D+02  0.0000000000D+00
  0.1393000000D+02  0.0000000000D+00
  0.5915000000D+01  0.0000000000D+00
  0.1843000000D+01  0.0000000000D+00
  0.7124000000D+00  0.0000000000D+00
  0.2637000000D+00  0.1000000000D+01
 s    1  1.00
  0.8594000000D-01  0.1000000000D+01
 p    6  1.00
  0.8039000000D+02  0.6346999640D-02
  0.1863000000D+02  0.4420399749D-01
  0.5694000000D+01  0.1685139904D+00
  0.1953000000D+01  0.3615629795D+00
  0.6702000000D+00  0.4421779749D+00
  0.2166000000D+00  0.2434349862D+00
 p    6  1.00
  0.8039000000D+02  0.0000000000D+00
  0.1863000000D+02  0.0000000000D+00
  0.5694000000D+01  0.0000000000D+00
  0.1953000000D+01  0.1000000000D+01
  0.6702000000D+00  0.0000000000D+00
  0.2166000000D+00  0.0000000000D+00
 p    6  1.00
  0.8039000000D+02  0.0000000000D+00
  0.1863000000D+02  0.0000000000D+00
  0.5694000000D+01  0.0000000000D+00
  0.1953000000D+01  0.0000000000D+00
  0.6702000000D+00  0.1000000000D+01
  0.2166000000D+00  0.0000000000D+00
 p    6  1.00
  0.8039000000D+02  0.0000000000D+00
  0.1863000000D+02  0.0000000000D+00
  0.5694000000D+01  0.0000000000D+00
  0.1953000000D+01  0.0000000000D+00
  0.6702000000D+00  0.0000000000D+00
  0.2166000000D+00  0.1000000000D+01
 p    1  1.00
  0.6568000000D-01  0.1000000000D+01
 d    1  1.00
  0.5014000000D+01  0.1000000000D+01
 d    1  1.00
  0.1725000000D+01  0.1000000000D+01
 d    1  1.00
  0.5860000000D+00  0.1000000000D+01
 d    1  1.00
  0.2070000000D+00  0.1000000000D+01
 f    1  1.00
  0.3562000000D+01  0.1000000000D+01
 f    1  1.00
  0.1148000000D+01  0.1000000000D+01
 f    1  1.00
  0.4600000000D+00  0.1000000000D+01
 g    1  1.00
  0.2376000000D+01  0.1000000000D+01
 g    1  1.00
  0.9240000000D+00  0.1000000000D+01
 
 
[MO]
 Sym=      1.1
 Ene=     -25.9781
 Spin= Alpha
 Occup=    2.000000
1 0.70728796527538
2 0.000581605145417
3 -0.000050732797697
4 -0.000594368454763
5 0.000133984892835
6 -0.000142924594452
7 0.0
8 0.0
9 0.000546188665211
10 0.0
11 0.0
12 -0.000198796140226
13 0.0
14 0.0
15 -0.000319479039359
16 0.0
17 0.0
18 -0.000090236190526
19 0.0
20 0.0
21 -0.000008349691857
22 -0.000014046458659
23 -0.000014046458659
24 0.000028092917318
25 0.0
26 0.0
27 0.0
28 0.000072956206597
29 0.000072956206597
30 -0.000145912413193
31 0.0
32 0.0
33 0.0
34 0.000003533772378
35 0.000003533772378
36 -0.000007067544756
37 0.0
38 0.0
39 0.0
40 -0.000014250328180
41 -0.000014250328180
42 0.000028500656361
43 0.0
44 0.0
45 0.0
46 0.0
47 0.0
48 0.000010063115199
49 0.0
50 0.0
51 -0.000006750542895
52 0.0
53 0.0
54 -0.000006750542895
55 0.0
56 0.0
57 0.0
58 -0.000038587034907
59 0.0
60 0.0
61 0.000025884969931
62 0.0
63 0.0
64 0.000025884969931
65 0.0
66 0.0
67 0.0
68 0.000074434821701
69 0.0
70 0.0
71 -0.000049932396365
72 0.0
73 0.0
74 -0.000049932396365
75 0.0
76 -0.000005547247033
77 -0.000005547247033
78 -0.000014792658751
79 0.0
80 0.0
81 0.0
82 0.0
83 0.0
84 0.0
85 -0.000003248135268
86 0.000012992541079
87 0.000012992541079
88 0.0
89 0.0
90 0.0
91 0.000013207250775
92 0.000013207250775
93 0.000035219335402
94 0.0
95 0.0
96 0.0
97 0.0
98 0.0
99 0.0
100 0.000007733374199
101 -0.000030933496790
102 -0.000030933496789
103 0.0
104 0.0
105 0.0
106 0.70728796527538
107 0.000581605145417
108 -0.000050732797697
109 -0.000594368454763
110 0.000133984892835
111 -0.000142924594452
112 0.0
113 0.0
114 -0.000546188665211
115 0.0
116 0.0
117 0.000198796140226
118 0.0
119 0.0
120 0.000319479039359
121 0.0
122 0.0
123 0.000090236190526
124 0.0
125 0.0
126 0.000008349691857
127 -0.000014046458659
128 -0.000014046458659
129 0.000028092917318
130 0.0
131 0.0
132 0.0
133 0.000072956206597
134 0.000072956206597
135 -0.000145912413193
136 0.0
137 0.0
138 0.0
139 0.000003533772378
140 0.000003533772378
141 -0.000007067544756
142 0.0
143 0.0
144 0.0
145 -0.000014250328180
146 -0.000014250328180
147 0.000028500656361
148 0.0
149 0.0
150 0.0
151 0.0
152 0.0
153 -0.000010063115199
154 0.0
155 0.0
156 0.000006750542895
157 0.0
158 0.0
159 0.000006750542895
160 0.0
161 0.0
162 0.0
163 0.000038587034907
164 0.0
165 0.0
166 -0.000025884969931
167 0.0
168 0.0
169 -0.000025884969931
170 0.0
171 0.0
172 0.0
173 -0.000074434821701
174 0.0
175 0.0
176 0.000049932396365
177 0.0
178 0.0
179 0.000049932396365
180 0.0
181 -0.000005547247033
182 -0.000005547247033
183 -0.000014792658751
184 0.0
185 0.0
186 0.0
187 0.0
188 0.0
189 0.0
190 -0.000003248135268
191 0.000012992541079
192 0.000012992541079
193 0.0
194 0.0
195 0.0
196 0.000013207250775
197 0.000013207250775
198 0.000035219335402
199 0.0
200 0.0
201 0.0
202 0.0
203 0.0
204 0.0
205 0.000007733374199
206 -0.000030933496790
207 -0.000030933496789
208 0.0
209 0.0
210 0.0
 Sym=      1.5
 Ene=     -25.9780
 Spin= Alpha
 Occup=    2.000000
1 0.70736544506006
2 0.000838467327821
3 0.000044066171258
4 -0.001411655139817
5 0.001251716774620
6 0.000569963200012
7 0.0
8 0.0
9 0.000459050487219
10 0.0
11 0.0
12 -0.000235702499476
13 0.0
14 0.0
15 -0.000371025813178
16 0.0
17 0.0
18 0.001153821250803
19 0.0
20 0.0
21 0.000131047988239
22 -0.000019908246538
23 -0.000019908246538
24 0.000039816493076
25 0.0
26 0.0
27 0.0
28 0.000102011746092
29 0.000102011746092
30 -0.000204023492184
31 0.0
32 0.0
33 0.0
34 -0.000096708821509
35 -0.000096708821509
36 0.000193417643017
37 0.0
38 0.0
39 0.0
40 -0.000257158766240
41 -0.000257158766240
42 0.000514317532479
43 0.0
44 0.0
45 0.0
46 0.0
47 0.0
48 0.000007465002994
49 0.0
50 0.0
51 -0.000005007676244
52 0.0
53 0.0
54 -0.000005007676244
55 0.0
56 0.0
57 0.0
58 -0.000035640107023
59 0.0
60 0.0
61 0.000023908110609
62 0.0
63 0.0
64 0.000023908110608
65 0.0
66 0.0
67 0.0
68 0.000208095391941
69 0.0
70 0.0
71 -0.000139594632656
72 0.0
73 0.0
74 -0.000139594632656
75 0.0
76 -0.000001889333478
77 -0.000001889333478
78 -0.000005038222605
79 0.0
80 0.0
81 0.0
82 0.0
83 0.0
84 0.0
85 -0.000001106280405
86 0.000004425121627
87 0.000004425121627
88 0.0
89 0.0
90 0.0
91 0.000010000761945
92 0.000010000761945
93 0.000026668698523
94 0.0
95 0.0
96 0.0
97 0.0
98 0.0
99 0.0
100 0.000005855846589
101 -0.000023423386351
102 -0.000023423386351
103 0.0
104 0.0
105 0.0
106 -0.70736544506006
107 -0.000838467327821
108 -0.000044066171258
109 0.001411655139817
110 -0.001251716774620
111 -0.000569963200012
112 0.0
113 0.0
114 0.000459050487219
115 0.0
116 0.0
117 -0.000235702499476
118 0.0
119 0.0
120 -0.000371025813178
121 0.0
122 0.0
123 0.001153821250803
124 0.0
125 0.0
126 0.000131047988239
127 0.000019908246538
128 0.000019908246538
129 -0.000039816493076
130 0.0
131 0.0
132 0.0
133 -0.000102011746092
134 -0.000102011746092
135 0.000204023492184
136 0.0
137 0.0
138 0.0
139 0.000096708821509
140 0.000096708821509
141 -0.000193417643017
142 0.0
143 0.0
144 0.0
145 0.000257158766240
146 0.000257158766240
147 -0.000514317532479
148 0.0
149 0.0
150 0.0
151 0.0
152 0.0
153 0.000007465002994
154 0.0
155 0.0
156 -0.000005007676244
157 0.0
158 0.0
159 -0.000005007676244
160 0.0
161 0.0
162 0.0
163 -0.000035640107023
164 0.0
165 0.0
166 0.000023908110609
167 0.0
168 0.0
169 0.000023908110608
170 0.0
171 0.0
172 0.0
173 0.000208095391941
174 0.0
175 0.0
176 -0.000139594632656
177 0.0
178 0.0
179 -0.000139594632656
180 0.0
181 0.000001889333478
182 0.000001889333478
183 0.000005038222605
184 0.0
185 0.0
186 0.0
187 0.0
188 0.0
189 0.0
190 0.000001106280405
191 -0.000004425121627
192 -0.000004425121627
193 0.0
194 0.0
195 0.0
196 -0.000010000761945
197 -0.000010000761945
198 -0.000026668698523
199 0.0
200 0.0
201 0.0
202 0.0
203 0.0
204 0.0
205 -0.000005855846589
206 0.000023423386351
207 0.000023423386351
208 0.0
209 0.0
210 0.0
 Sym=      2.1
 Ene=      -1.2287
 Spin= Alpha
 Occup=    2.000000
1 -0.000915293834330
2 0.68214739381501
3 -0.001314892108440
4 -0.007212667607701
5 0.012137168115056
6 0.008357957028293
7 0.0
8 0.0
9 0.017306873247755
10 0.0
11 0.0
12 0.000089432071171
13 0.0
14 0.0
15 0.000352600579283
16 0.0
17 0.0
18 -0.003750688986745
19 0.0
20 0.0
21 -0.000413258201511
22 0.000072085425416
23 0.000072085425416
24 -0.000144170850832
25 0.0
26 0.0
27 0.0
28 -0.000273876085847
29 -0.000273876085847
30 0.000547752171695
31 0.0
32 0.0
33 0.0
34 -0.000528024123361
35 -0.000528024123361
36 0.001056048246722
37 0.0
38 0.0
39 0.0
40 0.000373893243530
41 0.000373893243530
42 -0.000747786487059
43 0.0
44 0.0
45 0.0
46 0.0
47 0.0
48 0.000024595472720
49 0.0
50 0.0
51 -0.000016499144682
52 0.0
53 0.0
54 -0.000016499144682
55 0.0
56 0.0
57 0.0
58 0.000461722731882
59 0.0
60 0.0
61 -0.000309733024573
62 0.0
63 0.0
64 -0.000309733024573
65 0.0
66 0.0
67 0.0
68 0.000909333412640
69 0.0
70 0.0
71 -0.000609999397462
72 0.0
73 0.0
74 -0.000609999397462
75 0.0
76 -0.000004932324038
77 -0.000004932324038
78 -0.000013152864105
79 0.0
80 0.0
81 0.0
82 0.0
83 0.0
84 0.0
85 -0.000002888073236
86 0.000011552292936
87 0.000011552292936
88 0.0
89 0.0
90 0.0
91 0.000157148683668
92 0.000157148683668
93 0.000419063156563
94 0.0
95 0.0
96 0.0
97 0.0
98 0.0
99 0.0
100 0.000092016847214
101 -0.000368067388554
102 -0.000368067388554
103 0.0
104 0.0
105 0.0
106 -0.000915293834330
107 0.68214739381501
108 -0.001314892108440
109 -0.007212667607701
110 0.012137168115056
111 0.008357957028293
112 0.0
113 0.0
114 -0.017306873247755
115 0.0
116 0.0
117 -0.000089432071171
118 0.0
119 0.0
120 -0.000352600579283
121 0.0
122 0.0
123 0.003750688986745
124 0.0
125 0.0
126 0.000413258201511
127 0.000072085425416
128 0.000072085425416
129 -0.000144170850832
130 0.0
131 0.0
132 0.0
133 -0.000273876085847
134 -0.000273876085847
135 0.000547752171695
136 0.0
137 0.0
138 0.0
139 -0.000528024123361
140 -0.000528024123361
141 0.001056048246722
142 0.0
143 0.0
144 0.0
145 0.000373893243530
146 0.000373893243530
147 -0.000747786487059
148 0.0
149 0.0
150 0.0
151 0.0
152 0.0
153 -0.000024595472720
154 0.0
155 0.0
156 0.000016499144682
157 0.0
158 0.0
159 0.000016499144682
160 0.0
161 0.0
162 0.0
163 -0.000461722731882
164 0.0
165 0.0
166 0.000309733024573
167 0.0
168 0.0
169 0.000309733024573
170 0.0
171 0.0
172 0.0
173 -0.000909333412640
174 0.0
175 0.0
176 0.000609999397462
177 0.0
178 0.0
179 0.000609999397462
180 0.0
181 -0.000004932324038
182 -0.000004932324038
183 -0.000013152864105
184 0.0
185 0.0
186 0.0
187 0.0
188 0.0
189 0.0
190 -0.000002888073236
191 0.000011552292936
192 0.000011552292936
193 0.0
194 0.0
195 0.0
196 0.000157148683668
197 0.000157148683668
198 0.000419063156563
199 0.0
200 0.0
201 0.0
202 0.0
203 0.0
204 0.0
205 0.000092016847214
206 -0.000368067388554
207 -0.000368067388554
208 0.0
209 0.0
210 0.0
 Sym=      2.5
 Ene=      -1.1661
 Spin= Alpha
 Occup=    2.000000
1 -0.000266045386092
2 0.70333180921897
3 -0.000346472441473
4 -0.007378721844217
5 0.018850773829752
6 0.010554530043274
7 0.0
8 0.0
9 -0.047720330924148
10 0.0
11 0.0
12 0.000825793593576
13 0.0
14 0.0
15 -0.001180052805860
16 0.0
17 0.0
18 -0.000706620710268
19 0.0
20 0.0
21 -0.001699466977763
22 0.000190554951252
23 0.000190554951252
24 -0.000381109902504
25 0.0
26 0.0
27 0.0
28 0.000292225734349
29 0.000292225734349
30 -0.000584451468698
31 0.0
32 0.0
33 0.0
34 0.001158999966204
35 0.001158999966204
36 -0.002317999932407
37 0.0
38 0.0
39 0.0
40 0.000156982982446
41 0.000156982982446
42 -0.000313965964892
43 0.0
44 0.0
45 0.0
46 0.0
47 0.0
48 -0.000024143025174
49 0.0
50 0.0
51 0.000016195633642
52 0.0
53 0.0
54 0.000016195633642
55 0.0
56 0.0
57 0.0
58 -0.000430294791523
59 0.0
60 0.0
61 0.000288650521263
62 0.0
63 0.0
64 0.000288650521263
65 0.0
66 0.0
67 0.0
68 0.000012604312900
69 0.0
70 0.0
71 -0.000008455230136
72 0.0
73 0.0
74 -0.000008455230136
75 0.0
76 -0.000002693440243
77 -0.000002693440243
78 -0.000007182507320
79 0.0
80 0.0
81 0.0
82 0.0
83 0.0
84 0.0
85 -0.000001577117122
86 0.000006308468476
87 0.000006308468476
88 0.0
89 0.0
90 0.0
91 -0.000064762013191
92 -0.000064762013191
93 -0.000172698701723
94 0.0
95 0.0
96 0.0
97 0.0
98 0.0
99 0.0
100 -0.000037920751933
101 0.000151683008049
102 0.000151683008049
103 0.0
104 0.0
105 0.0
106 0.000266045386092
107 -0.70333180921897
108 0.000346472441473
109 0.007378721844217
110 -0.018850773829752
111 -0.010554530043274
112 0.0
113 0.0
114 -0.047720330924148
115 0.0
116 0.0
117 0.000825793593576
118 0.0
119 0.0
120 -0.001180052805860
121 0.0
122 0.0
123 -0.000706620710268
124 0.0
125 0.0
126 -0.001699466977763
127 -0.000190554951252
128 -0.000190554951252
129 0.000381109902504
130 0.0
131 0.0
132 0.0
133 -0.000292225734349
134 -0.000292225734349
135 0.000584451468698
136 0.0
137 0.0
138 0.0
139 -0.001158999966204
140 -0.001158999966204
141 0.002317999932407
142 0.0
143 0.0
144 0.0
145 -0.000156982982446
146 -0.000156982982446
147 0.000313965964892
148 0.0
149 0.0
150 0.0
151 0.0
152 0.0
153 -0.000024143025174
154 0.0
155 0.0
156 0.000016195633642
157 0.0
158 0.0
159 0.000016195633642
160 0.0
161 0.0
162 0.0
163 -0.000430294791523
164 0.0
165 0.0
166 0.000288650521263
167 0.0
168 0.0
169 0.000288650521263
170 0.0
171 0.0
172 0.0
173 0.000012604312900
174 0.0
175 0.0
176 -0.000008455230136
177 0.0
178 0.0
179 -0.000008455230136
180 0.0
181 0.000002693440243
182 0.000002693440243
183 0.000007182507320
184 0.0
185 0.0
186 0.0
187 0.0
188 0.0
189 0.0
190 0.000001577117122
191 -0.000006308468476
192 -0.000006308468476
193 0.0
194 0.0
195 0.0
196 0.000064762013191
197 0.000064762013191
198 0.000172698701723
199 0.0
200 0.0
201 0.0
202 0.0
203 0.0
204 0.0
205 0.000037920751933
206 -0.000151683008049
207 -0.000151683008049
208 0.0
209 0.0
210 0.0
 Sym=      1.2
 Ene=      -0.3374
 Spin= Alpha
 Occup=    2.000000
1 0.0
2 0.0
3 0.0
4 0.0
5 0.0
6 0.0
7 0.66152067725876
8 0.0
9 0.0
10 -0.001722623117375
11 0.0
12 0.0
13 0.001331380349618
14 0.0
15 0.0
16 0.026336927889513
17 0.0
18 0.0
19 0.027700477288686
20 0.0
21 0.0
22 0.0
23 0.0
24 0.0
25 0.0
26 0.000170247247479
27 0.0
28 0.0
29 0.0
30 0.0
31 0.0
32 0.000519359185090
33 0.0
34 0.0
35 0.0
36 0.0
37 0.0
38 0.001088683195716
39 0.0
40 0.0
41 0.0
42 0.0
43 0.0
44 -0.004731320705938
45 0.0
46 -0.000234743413589
47 0.0
48 0.0
49 -0.000104980445100
50 0.0
51 0.0
52 0.000419921783132
53 0.0
54 0.0
55 0.0
56 -0.000732274769870
57 0.0
58 0.0
59 -0.000327483232873
60 0.0
61 0.0
62 0.001309932931055
63 0.0
64 0.0
65 0.0
66 -0.000394262129261
67 0.0
68 0.0
69 -0.000176319380584
70 0.0
71 0.0
72 0.000705277533773
73 0.0
74 0.0
75 0.0
76 0.0
77 0.0
78 0.0
79 0.0
80 0.000039209554951
81 0.0
82 0.0
83 -0.000052279407260
84 0.0
85 0.0
86 0.0
87 0.0
88 0.0
89 0.000017535046931
90 0.0
91 0.0
92 0.0
93 0.0
94 0.0
95 -0.000408048484412
96 0.0
97 0.0
98 0.000544064646248
99 0.0
100 0.0
101 0.0
102 0.0
103 0.0
104 -0.000182484830342
105 0.0
106 0.0
107 0.0
108 0.0
109 0.0
110 0.0
111 0.0
112 0.66152067725876
113 0.0
114 0.0
115 -0.001722623117375
116 0.0
117 0.0
118 0.001331380349618
119 0.0
120 0.0
121 0.026336927889513
122 0.0
123 0.0
124 0.027700477288686
125 0.0
126 0.0
127 0.0
128 0.0
129 0.0
130 0.0
131 -0.000170247247479
132 0.0
133 0.0
134 0.0
135 0.0
136 0.0
137 -0.000519359185090
138 0.0
139 0.0
140 0.0
141 0.0
142 0.0
143 -0.001088683195716
144 0.0
145 0.0
146 0.0
147 0.0
148 0.0
149 0.004731320705938
150 0.0
151 -0.000234743413589
152 0.0
153 0.0
154 -0.000104980445100
155 0.0
156 0.0
157 0.000419921783132
158 0.0
159 0.0
160 0.0
161 -0.000732274769870
162 0.0
163 0.0
164 -0.000327483232873
165 0.0
166 0.0
167 0.001309932931055
168 0.0
169 0.0
170 0.0