Warning: no access to tty (Bad file number).
Thus no job control in this shell.
 Entering Gaussian System, Link 0=g03
 Initial command:
 /usr/local/g03/g03/l1.exe /work/47826.titan/Gau-2533777.inp -scrdir=/work/47826.titan/
 Entering Link 1 = /usr/local/g03/g03/l1.exe PID=   2534044.
  
 Copyright (c) 1988,1990,1992,1993,1995,1998,2003,2004, Gaussian, Inc.
                  All Rights Reserved.
  
 This is the Gaussian(R) 03 program.  It is based on the
 the Gaussian(R) 98 system (copyright 1998, Gaussian, Inc.),
 the Gaussian(R) 94 system (copyright 1995, Gaussian, Inc.),
 the Gaussian 92(TM) system (copyright 1992, Gaussian, Inc.),
 the Gaussian 90(TM) system (copyright 1990, Gaussian, Inc.),
 the Gaussian 88(TM) system (copyright 1988, Gaussian, Inc.),
 the Gaussian 86(TM) system (copyright 1986, Carnegie Mellon
 University), and the Gaussian 82(TM) system (copyright 1983,
 Carnegie Mellon University). Gaussian is a federally registered
 trademark of Gaussian, Inc.
  
 This software contains proprietary and confidential information,
 including trade secrets, belonging to Gaussian, Inc.
  
 This software is provided under written license and may be
 used, copied, transmitted, or stored only in accord with that
 written license.
  
 The following legend is applicable only to US Government
 contracts under FAR:
  
                    RESTRICTED RIGHTS LEGEND
  
 Use, reproduction and disclosure by the US Government is
 subject to restrictions as set forth in subparagraphs (a)
 and (c) of the Commercial Computer Software - Restricted
 Rights clause in FAR 52.227-19.
  
 Gaussian, Inc.
 340 Quinnipiac St., Bldg. 40, Wallingford CT 06492
  
  
 ---------------------------------------------------------------
 Warning -- This program may not be used in any manner that
 competes with the business of Gaussian, Inc. or will provide
 assistance to any competitor of Gaussian, Inc.  The licensee
 of this program is prohibited from giving any competitor of
 Gaussian, Inc. access to this program.  By using this program,
 the user acknowledges that Gaussian, Inc. is engaged in the
 business of creating and licensing software in the field of
 computational chemistry and represents and warrants to the
 licensee that it is not a competitor of Gaussian, Inc. and that
 it will not use this program in any manner prohibited above.
 ---------------------------------------------------------------
  

 Cite this work as:
 Gaussian 03, Revision C.02,
 M. J. Frisch, G. W. Trucks, H. B. Schlegel, G. E. Scuseria, 
 M. A. Robb, J. R. Cheeseman, J. A. Montgomery, Jr., T. Vreven, 
 K. N. Kudin, J. C. Burant, J. M. Millam, S. S. Iyengar, J. Tomasi, 
 V. Barone, B. Mennucci, M. Cossi, G. Scalmani, N. Rega, 
 G. A. Petersson, H. Nakatsuji, M. Hada, M. Ehara, K. Toyota, 
 R. Fukuda, J. Hasegawa, M. Ishida, T. Nakajima, Y. Honda, O. Kitao, 
 H. Nakai, M. Klene, X. Li, J. E. Knox, H. P. Hratchian, J. B. Cross, 
 C. Adamo, J. Jaramillo, R. Gomperts, R. E. Stratmann, O. Yazyev, 
 A. J. Austin, R. Cammi, C. Pomelli, J. W. Ochterski, P. Y. Ayala, 
 K. Morokuma, G. A. Voth, P. Salvador, J. J. Dannenberg, 
 V. G. Zakrzewski, S. Dapprich, A. D. Daniels, M. C. Strain, 
 O. Farkas, D. K. Malick, A. D. Rabuck, K. Raghavachari, 
 J. B. Foresman, J. V. Ortiz, Q. Cui, A. G. Baboul, S. Clifford, 
 J. Cioslowski, B. B. Stefanov, G. Liu, A. Liashenko, P. Piskorz, 
 I. Komaromi, R. L. Martin, D. J. Fox, T. Keith, M. A. Al-Laham, 
 C. Y. Peng, A. Nanayakkara, M. Challacombe, P. M. W. Gill, 
 B. Johnson, W. Chen, M. W. Wong, C. Gonzalez, and J. A. Pople, 
 Gaussian, Inc., Wallingford CT, 2004.
 
 ******************************************
 Gaussian 03:  SGI64-G03RevC.02 12-Jun-2004
                29-Jan-2006 
 ******************************************
 ---------------------------------------------------
 # rhf/aug-cc-pVTZ 6D 10F scf=tight Gfinput PUNCH=MO
 ---------------------------------------------------
 1/38=1/1;
 2/17=6,18=5,40=1/2;
 3/5=16,6=1,7=10,8=22,11=1,16=1,24=10,25=1,30=1/1,2,3;
 4/7=1/1;
 5/5=2,32=2,38=5/2;
 6/7=2,8=2,9=2,10=2,28=1/1;
 99/5=1,9=1,10=32/99;
 ---
 H2O
 ---
 Symbolic Z-matrix:
 Charge =  0 Multiplicity = 1
 H1
 O1                   H1   ROH
 H2                   O1   ROH      H1   AHOH
       Variables:
  ROH                   0.956                    
  AHOH                105.2                      
 
                          Input orientation:                          
 ---------------------------------------------------------------------
 Center     Atomic     Atomic              Coordinates (Angstroms)
 Number     Number      Type              X           Y           Z
 ---------------------------------------------------------------------
    1          1             0        0.000000    0.000000    0.000000
    2          8             0        0.000000    0.000000    0.956000
    3          1             0        0.922556    0.000000    1.206653
 ---------------------------------------------------------------------
                    Distance matrix (angstroms):
                    1          2          3
     1  H    0.000000
     2  O    0.956000   0.000000
     3  H    1.518921   0.956000   0.000000
 Stoichiometry    H2O
 Framework group  C2V[C2(O),SGV(H2)]
 Deg. of freedom     2
 Full point group                 C2V     NOp   4
 Largest Abelian subgroup         C2V     NOp   4
 Largest concise Abelian subgroup C2      NOp   2
                         Standard orientation:                         
 ---------------------------------------------------------------------
 Center     Atomic     Atomic              Coordinates (Angstroms)
 Number     Number      Type              X           Y           Z
 ---------------------------------------------------------------------
    1          1             0        0.000000    0.759460   -0.464521
    2          8             0        0.000000    0.000000    0.116130
    3          1             0        0.000000   -0.759460   -0.464521
 ---------------------------------------------------------------------
 Rotational constants (GHZ):    837.3685616    434.7021782    286.1522762
 Standard basis: Aug-CC-pVTZ (6D, 10F)
 AO basis set in the form of general basis input:
  1 0
 S   3 1.00       0.000000000000
      0.3387000000D+02  0.2549486323D-01
      0.5095000000D+01  0.1903627659D+00
      0.1159000000D+01  0.8521620222D+00
 S   1 1.00       0.000000000000
      0.3258000000D+00  0.1000000000D+01
 S   1 1.00       0.000000000000
      0.1027000000D+00  0.1000000000D+01
 P   1 1.00       0.000000000000
      0.1407000000D+01  0.1000000000D+01
 P   1 1.00       0.000000000000
      0.3880000000D+00  0.1000000000D+01
 D   1 1.00       0.000000000000
      0.1057000000D+01  0.1000000000D+01
 S   1 1.00       0.000000000000
      0.2526000000D-01  0.1000000000D+01
 P   1 1.00       0.000000000000
      0.1020000000D+00  0.1000000000D+01
 D   1 1.00       0.000000000000
      0.2470000000D+00  0.1000000000D+01
 ****
  2 0
 S   7 1.00       0.000000000000
      0.1533000000D+05  0.5198089434D-03
      0.2299000000D+04  0.4020256215D-02
      0.5224000000D+03  0.2071282673D-01
      0.1473000000D+03  0.8101055358D-01
      0.4755000000D+02  0.2359629851D+00
      0.1676000000D+02  0.4426534455D+00
      0.6207000000D+01  0.3570644227D+00
 S   7 1.00       0.000000000000
      0.1533000000D+05  0.9133766235D-05
      0.2299000000D+04  0.6073625959D-04
      0.5224000000D+03  0.2687822822D-03
      0.4755000000D+02 -0.6969400301D-02
      0.1676000000D+02 -0.6064569004D-01
      0.6207000000D+01 -0.1655195358D+00
      0.6882000000D+00  0.1071513689D+01
 S   1 1.00       0.000000000000
      0.1752000000D+01  0.1000000000D+01
 S   1 1.00       0.000000000000
      0.2384000000D+00  0.1000000000D+01
 P   3 1.00       0.000000000000
      0.3446000000D+02  0.4116348957D-01
      0.7749000000D+01  0.2577628359D+00
      0.2280000000D+01  0.8024192744D+00
 P   1 1.00       0.000000000000
      0.7156000000D+00  0.1000000000D+01
 P   1 1.00       0.000000000000
      0.2140000000D+00  0.1000000000D+01
 D   1 1.00       0.000000000000
      0.2314000000D+01  0.1000000000D+01
 D   1 1.00       0.000000000000
      0.6450000000D+00  0.1000000000D+01
 F   1 1.00       0.000000000000
      0.1428000000D+01  0.1000000000D+01
 S   1 1.00       0.000000000000
      0.7376000000D-01  0.1000000000D+01
 P   1 1.00       0.000000000000
      0.5974000000D-01  0.1000000000D+01
 D   1 1.00       0.000000000000
      0.2140000000D+00  0.1000000000D+01
 F   1 1.00       0.000000000000
      0.5000000000D+00  0.1000000000D+01
 ****
  3 0
 S   3 1.00       0.000000000000
      0.3387000000D+02  0.2549486323D-01
      0.5095000000D+01  0.1903627659D+00
      0.1159000000D+01  0.8521620222D+00
 S   1 1.00       0.000000000000
      0.3258000000D+00  0.1000000000D+01
 S   1 1.00       0.000000000000
      0.1027000000D+00  0.1000000000D+01
 P   1 1.00       0.000000000000
      0.1407000000D+01  0.1000000000D+01
 P   1 1.00       0.000000000000
      0.3880000000D+00  0.1000000000D+01
 D   1 1.00       0.000000000000
      0.1057000000D+01  0.1000000000D+01
 S   1 1.00       0.000000000000
      0.2526000000D-01  0.1000000000D+01
 P   1 1.00       0.000000000000
      0.1020000000D+00  0.1000000000D+01
 D   1 1.00       0.000000000000
      0.2470000000D+00  0.1000000000D+01
 ****

 There are    42 symmetry adapted basis functions of A1  symmetry.
 There are    12 symmetry adapted basis functions of A2  symmetry.
 There are    20 symmetry adapted basis functions of B1  symmetry.
 There are    31 symmetry adapted basis functions of B2  symmetry.
 Integral buffers will be    131072 words long.
 Raffenetti 1 integral format.
 Two-electron integral symmetry is turned on.
   105 basis functions,   127 primitive gaussians,   105 cartesian basis functions
     5 alpha electrons        5 beta electrons
       nuclear repulsion energy         9.2049125824 Hartrees.
 NAtoms=    3 NActive=    3 NUniq=    2 SFac= 2.76D+00 NAtFMM=   60 Big=F
 One-electron integrals computed using PRISM.
 NBasis=   105 RedAO= T  NBF=    42    12    20    31
 NBsUse=   105 1.00D-06 NBFU=    42    12    20    31
 Harris functional with IExCor=  205 diagonalized for initial guess.
 ExpMin= 2.53D-02 ExpMax= 1.53D+04 ExpMxC= 5.22D+02 IAcc=3 IRadAn=         5 AccDes= 0.00D+00
 HarFok:  IExCor= 205 AccDes= 0.00D+00 IRadAn=         5 IDoV=1
 ScaDFX=  1.000000  1.000000  1.000000  1.000000
 Initial guess orbital symmetries:
       Occupied  (A1) (A1) (B2) (A1) (B1)
       Virtual   (A1) (B2) (A1) (B1) (A1) (B2) (B2) (A1) (A2) (A1)
                 (B1) (A1) (B2) (B2) (B2) (A1) (A1) (B1) (A1) (A2)
                 (A1) (B1) (B2) (B1) (A2) (A1) (B2) (A1) (B2) (B1)
                 (B2) (A1) (A1) (B2) (A2) (A1) (B2) (A2) (B1) (A1)
                 (A1) (B2) (B2) (B1) (A1) (B1) (B2) (A2) (A1) (B1)
                 (A1) (B2) (A1) (A1) (B1) (B2) (A2) (A1) (B2) (B2)
                 (A1) (A2) (A1) (A1) (B2) (B1) (A2) (B1) (A1) (B2)
                 (B2) (B1) (A1) (A2) (B2) (B2) (A1) (B1) (A1) (B2)
                 (A1) (B1) (A1) (B2) (B1) (A1) (B1) (A2) (A2) (A1)
                 (B2) (A1) (B2) (A1) (B2) (B1) (A1) (B2) (A1) (A1)
 The electronic state of the initial guess is 1-A1.
 Requested convergence on RMS density matrix=1.00D-08 within 128 cycles.
 Requested convergence on MAX density matrix=1.00D-06.
 Requested convergence on             energy=1.00D-06.
 No special actions if energy rises.
 SCF Done:  E(RHF) =  -76.0612567875     A.U. after   10 cycles
             Convg  =    0.2413D-08             -V/T =  2.0010
             S**2   =   0.0000

 **********************************************************************

            Population analysis using the SCF density.

 **********************************************************************

 Orbital symmetries:
       Occupied  (A1) (A1) (B2) (A1) (B1)
       Virtual   (A1) (B2) (A1) (B1) (A1) (B2) (B2) (A1) (A2) (A1)
                 (B1) (B2) (A1) (B2) (B2) (A1) (A1) (A1) (B1) (A2)
                 (B2) (A1) (B1) (B1) (A2) (B2) (A1) (B1) (A1) (B2)
                 (B2) (A1) (B2) (A2) (A1) (A1) (B2) (A2) (A1) (B1)
                 (A1) (B2) (B2) (B1) (A1) (B2) (B1) (A2) (A1) (B1)
                 (A1) (A1) (B2) (A1) (B2) (B1) (A2) (A1) (B2) (A1)
                 (B2) (A2) (A1) (A1) (B2) (B1) (A2) (B1) (A1) (B2)
                 (B2) (B1) (A1) (A2) (B2) (B2) (A1) (B1) (A1) (B2)
                 (A1) (B1) (B2) (A1) (A1) (B1) (B1) (A2) (A2) (B2)
                 (A1) (A1) (B2) (A1) (B2) (B1) (A1) (B2) (A1) (A1)
 The electronic state is 1-A1.
 Alpha  occ. eigenvalues --  -20.56463  -1.35338  -0.71966  -0.58369  -0.51020
 Alpha virt. eigenvalues --    0.02936   0.04759   0.12765   0.15449   0.16980
 Alpha virt. eigenvalues --    0.18072   0.21407   0.24092   0.26500   0.28268
 Alpha virt. eigenvalues --    0.29415   0.36536   0.41207   0.46212   0.52083
 Alpha virt. eigenvalues --    0.54991   0.67388   0.69940   0.71150   0.72188
 Alpha virt. eigenvalues --    0.76084   0.77459   0.79331   0.86117   0.92256
 Alpha virt. eigenvalues --    0.92705   0.93671   1.00249   1.00374   1.04052
 Alpha virt. eigenvalues --    1.07821   1.10963   1.15808   1.17645   1.19452
 Alpha virt. eigenvalues --    1.25235   1.25668   1.51252   1.57007   1.58033
 Alpha virt. eigenvalues --    1.72158   1.81538   1.82879   2.05608   2.06508
 Alpha virt. eigenvalues --    2.26709   2.28923   2.31752   2.41873   2.42064
 Alpha virt. eigenvalues --    2.47097   2.62290   2.62314   2.77916   2.79970
 Alpha virt. eigenvalues --    2.81107   2.88664   3.02342   3.08839   3.92679
 Alpha virt. eigenvalues --    3.96124   4.01769   4.15398   4.19103   4.25216
 Alpha virt. eigenvalues --    4.30054   4.38020   4.38968   4.42699   4.56898
 Alpha virt. eigenvalues --    4.98807   5.04765   5.07440   5.16509   5.20196
 Alpha virt. eigenvalues --    5.49138   5.65040   5.74175   6.00525   6.10829
 Alpha virt. eigenvalues --    6.22637   6.71167   6.85832   6.87476   7.09929
 Alpha virt. eigenvalues --    7.14043   7.29702   7.31880   7.35996   7.47044
 Alpha virt. eigenvalues --    7.51012   8.05251   8.72955   8.91021   9.69453
 Alpha virt. eigenvalues --   13.54511  14.89700  15.51467  16.94613  17.63392
          Condensed to atoms (all electrons):
              1          2          3
     1  H    0.465389   0.320415   0.005001
     2  O    0.320415   7.777559   0.320415
     3  H    0.005001   0.320415   0.465389
 Mulliken atomic charges:
              1
     1  H    0.209195
     2  O   -0.418390
     3  H    0.209195
 Sum of Mulliken charges=   0.00000
 Atomic charges with hydrogens summed into heavy atoms:
              1
     1  H    0.000000
     2  O    0.000000
     3  H    0.000000
 Sum of Mulliken charges=   0.00000
 Electronic spatial extent (au):  <R**2>=    19.4535
 Charge=     0.0000 electrons
 Dipole moment (field-independent basis, Debye):
    X=     0.0000    Y=     0.0000    Z=    -1.9631  Tot=     1.9631
 Quadrupole moment (field-independent basis, Debye-Ang):
   XX=    -7.5539   YY=    -4.2174   ZZ=    -6.2625
   XY=     0.0000   XZ=     0.0000   YZ=     0.0000
 Traceless Quadrupole moment (field-independent basis, Debye-Ang):
   XX=    -1.5426   YY=     1.7939   ZZ=    -0.2512
   XY=     0.0000   XZ=     0.0000   YZ=     0.0000
 Octapole moment (field-independent basis, Debye-Ang**2):
  XXX=     0.0000  YYY=     0.0000  ZZZ=    -1.1037  XYY=     0.0000
  XXY=     0.0000  XXZ=    -0.2427  XZZ=     0.0000  YZZ=     0.0000
  YYZ=    -1.3889  XYZ=     0.0000
 Hexadecapole moment (field-independent basis, Debye-Ang**3):
 XXXX=    -6.7703 YYYY=    -5.9431 ZZZZ=    -7.2393 XXXY=     0.0000
 XXXZ=     0.0000 YYYX=     0.0000 YYYZ=     0.0000 ZZZX=     0.0000
 ZZZY=     0.0000 XXYY=    -2.4577 XXZZ=    -2.3871 YYZZ=    -1.8604
 XXYZ=     0.0000 YYXZ=     0.0000 ZZXY=     0.0000
 N-N= 9.204912582369D+00 E-N=-1.990530167333D+02  KE= 7.598377923493D+01
 Symmetry A1   KE= 6.792143905058D+01
 Symmetry A2   KE= 3.298392959346D-32
 Symmetry B1   KE= 4.475352842149D+00
 Symmetry B2   KE= 3.586987342203D+00
 1\1\GINC-TITAN\SP\RHF\Aug-CC-pVTZ\H2O1\RRL581A\29-Jan-2006\0\\# RHF/AU
 G-CC-PVTZ 6D 10F SCF=TIGHT GFINPUT PUNCH=MO\\H2O\\0,1\H\O,1,0.956\H,2,
 0.956,1,105.2\\Version=SGI64-G03RevC.02\State=1-A1\HF=-76.0612568\RMSD
 =2.413e-09\Dipole=0.6135674,0.,-0.4691077\PG=C02V [C2(O1),SGV(H2)]\\@


 LET US PLACE AT THE END OF EVERY CHAPTER.....THE
 TWO LETTERS USED BY THE ROMAN JUDGES WHEN THEY DID
 NOT UNDERSTAND A PLEADING.
 N. L. -NON LIQUET- IT IS NOT CLEAR.
                                              -- VOLTAIRE
 Job cpu time:  0 days  0 hours  1 minutes  9.4 seconds.
 File lengths (MBytes):  RWF=     17 Int=      0 D2E=      0 Chk=     10 Scr=      1
 Normal termination of Gaussian 03 at Sun Jan 29 00:27:54 2006.
(5D15.8)
    1 Alpha MO OE=-0.20564625D+02
 0.40335407D-03 0.43293724D-03 0.59784315D-03 0.00000000D+00-0.25932197D-03
 0.17351054D-03 0.00000000D+00 0.44856929D-03-0.36459575D-03 0.30652003D-04
 0.77087775D-04-0.32614806D-04 0.00000000D+00 0.00000000D+00 0.70906994D-04
 0.17896050D-03 0.00000000D+00 0.12487014D-03-0.19205401D-03 0.23569602D-03
-0.21357031D-03 0.66941985D-04 0.00000000D+00 0.00000000D+00 0.31112109D-03
 0.97644619D+00-0.16560666D-01 0.49174000D-01-0.15955575D-01 0.00000000D+00
 0.00000000D+00-0.28677072D-02 0.00000000D+00 0.00000000D+00 0.58409748D-02
 0.00000000D+00 0.00000000D+00 0.36566158D-02 0.27114777D-02 0.26935798D-02
 0.26930061D-02 0.00000000D+00 0.00000000D+00 0.00000000D+00 0.82431708D-02
 0.78767930D-02 0.79726873D-02 0.00000000D+00 0.00000000D+00 0.00000000D+00
 0.00000000D+00 0.00000000D+00-0.25029765D-02 0.00000000D+00 0.00000000D+00
-0.11314166D-02 0.00000000D+00 0.00000000D+00-0.11715325D-02 0.00000000D+00
-0.32725142D-02 0.00000000D+00 0.00000000D+00 0.18097574D-03 0.28624121D-02
 0.20531257D-02 0.22767387D-02 0.00000000D+00 0.00000000D+00 0.00000000D+00
 0.00000000D+00 0.00000000D+00-0.26989615D-02 0.00000000D+00 0.00000000D+00
-0.13347906D-02 0.00000000D+00 0.00000000D+00-0.87844424D-03 0.00000000D+00
 0.40335407D-03 0.43293724D-03 0.59784315D-03 0.00000000D+00 0.25932197D-03
 0.17351054D-03 0.00000000D+00-0.44856929D-03-0.36459575D-03 0.30652003D-04
 0.77087775D-04-0.32614806D-04 0.00000000D+00 0.00000000D+00-0.70906994D-04
 0.17896050D-03 0.00000000D+00-0.12487014D-03-0.19205401D-03 0.23569602D-03
-0.21357031D-03 0.66941985D-04 0.00000000D+00 0.00000000D+00-0.31112109D-03
    2 Alpha MO OE=-0.13533760D+01
 0.90435445D-01 0.86160250D-01 0.64522772D-02 0.00000000D+00-0.11523072D-01
 0.80610244D-02 0.00000000D+00-0.15092684D-01 0.99339483D-02-0.42827589D-03
 0.24312327D-02 0.10970571D-02 0.00000000D+00 0.00000000D+00-0.25641696D-02
-0.92739314D-03 0.00000000D+00 0.72549790D-03-0.83508480D-03-0.21773998D-02
-0.45200326D-03-0.19691553D-02 0.00000000D+00 0.00000000D+00-0.62612167D-03
-0.20925998D+00 0.47955906D+00 0.12931292D+00 0.27022814D+00 0.00000000D+00
 0.00000000D+00-0.45964225D-01 0.00000000D+00 0.00000000D+00-0.49853639D-01
 0.00000000D+00 0.00000000D+00-0.12873717D-01-0.23440873D-02 0.44275049D-02
 0.24596675D-02 0.00000000D+00 0.00000000D+00 0.00000000D+00-0.98529599D-02
-0.10811644D-02-0.16301320D-02 0.00000000D+00 0.00000000D+00 0.00000000D+00
 0.00000000D+00 0.00000000D+00-0.26899159D-02 0.00000000D+00 0.00000000D+00
-0.49259909D-04 0.00000000D+00 0.00000000D+00-0.41575401D-02 0.00000000D+00
 0.14485007D-01 0.00000000D+00 0.00000000D+00 0.76216584D-03 0.53395164D-03
-0.76850986D-02-0.32550589D-02 0.00000000D+00 0.00000000D+00 0.00000000D+00
 0.00000000D+00 0.00000000D+00 0.28505031D-02 0.00000000D+00 0.00000000D+00
 0.15235450D-02 0.00000000D+00 0.00000000D+00 0.35863068D-02 0.00000000D+00
 0.90435445D-01 0.86160250D-01 0.64522772D-02 0.00000000D+00 0.11523072D-01
 0.80610244D-02 0.00000000D+00 0.15092684D-01 0.99339483D-02-0.42827589D-03
 0.24312327D-02 0.10970571D-02 0.00000000D+00 0.00000000D+00 0.25641696D-02
-0.92739314D-03 0.00000000D+00-0.72549790D-03-0.83508480D-03-0.21773998D-02
-0.45200326D-03-0.19691553D-02 0.00000000D+00 0.00000000D+00 0.62612167D-03
    3 Alpha MO OE=-0.71965608D+00
 0.14291734D+00 0.19346864D+00 0.68976801D-01 0.00000000D+00-0.99322803D-02
 0.12929414D-01 0.00000000D+00-0.15541627D-01 0.22925680D-01-0.19446431D-02
 0.28099266D-02 0.31879595D-02 0.00000000D+00 0.00000000D+00-0.56815975D-02
-0.26716365D-02 0.00000000D+00 0.72386758D-03 0.36662043D-02-0.43008210D-02
-0.40487632D-02-0.84204933D-03 0.00000000D+00 0.00000000D+00-0.25809226D-02
 0.00000000D+00 0.00000000D+00 0.00000000D+00 0.00000000D+00 0.00000000D+00
 0.29079185D+00 0.00000000D+00 0.00000000D+00 0.30959940D+00 0.00000000D+00
 0.00000000D+00 0.15894414D+00 0.00000000D+00 0.00000000D+00 0.00000000D+00
 0.00000000D+00 0.00000000D+00 0.00000000D+00-0.12803734D-01 0.00000000D+00
 0.00000000D+00 0.00000000D+00 0.00000000D+00 0.00000000D+00-0.23407693D-01
 0.00000000D+00 0.18549309D-01 0.00000000D+00 0.00000000D+00 0.43385679D-02
 0.00000000D+00 0.00000000D+00 0.71386845D-02 0.00000000D+00 0.00000000D+00
 0.00000000D+00 0.00000000D+00 0.23998054D-02 0.00000000D+00 0.00000000D+00
 0.00000000D+00 0.00000000D+00 0.00000000D+00 0.00000000D+00-0.80967130D-02
 0.00000000D+00 0.13434561D-01 0.00000000D+00 0.00000000D+00 0.34235159D-02
 0.00000000D+00 0.00000000D+00 0.76367236D-02 0.00000000D+00 0.00000000D+00
-0.14291734D+00-0.19346864D+00-0.68976801D-01 0.00000000D+00-0.99322803D-02
-0.12929414D-01 0.00000000D+00-0.15541627D-01-0.22925680D-01 0.19446431D-02
-0.28099266D-02-0.31879595D-02 0.00000000D+00 0.00000000D+00-0.56815975D-02
 0.26716365D-02 0.00000000D+00 0.72386758D-03-0.36662043D-02 0.43008210D-02
 0.40487632D-02 0.84204933D-03 0.00000000D+00 0.00000000D+00-0.25809226D-02
    4 Alpha MO OE=-0.58369242D+00
-0.85398621D-01-0.12819131D+00-0.96432071D-01 0.00000000D+00 0.97263822D-02
 0.17117690D-02 0.00000000D+00 0.20202600D-01 0.47277120D-02 0.86624311D-03
-0.36212130D-02 0.15840616D-02 0.00000000D+00 0.00000000D+00 0.11495810D-02
-0.28009727D-02 0.00000000D+00 0.68924951D-02 0.76315150D-02 0.70724969D-02
 0.32318598D-02 0.74603253D-02 0.00000000D+00 0.00000000D+00-0.92848016D-03
-0.67148894D-01 0.17424921D+00 0.52733298D-01 0.26165113D+00 0.00000000D+00
 0.00000000D+00 0.31998222D+00 0.00000000D+00 0.00000000D+00 0.35552160D+00
 0.00000000D+00 0.00000000D+00 0.22435097D+00 0.59000538D-02-0.24305752D-03
-0.57050317D-02 0.00000000D+00 0.00000000D+00 0.00000000D+00 0.11958546D-01
 0.60453385D-02-0.16810117D-01 0.00000000D+00 0.00000000D+00 0.00000000D+00
 0.00000000D+00 0.00000000D+00 0.17694924D-01 0.00000000D+00 0.00000000D+00
 0.49880720D-02 0.00000000D+00 0.00000000D+00 0.98974812D-02 0.00000000D+00
 0.12328120D+00 0.00000000D+00 0.00000000D+00 0.75514371D-02-0.15106771D-02
 0.55733410D-03-0.12255196D-01 0.00000000D+00 0.00000000D+00 0.00000000D+00
 0.00000000D+00 0.00000000D+00 0.20439859D-01 0.00000000D+00 0.00000000D+00
 0.62772968D-02 0.00000000D+00 0.00000000D+00 0.80393905D-02 0.00000000D+00
-0.85398621D-01-0.12819131D+00-0.96432071D-01 0.00000000D+00-0.97263822D-02
 0.17117690D-02 0.00000000D+00-0.20202600D-01 0.47277120D-02 0.86624311D-03
-0.36212130D-02 0.15840616D-02 0.00000000D+00 0.00000000D+00-0.11495810D-02
-0.28009727D-02 0.00000000D+00-0.68924951D-02 0.76315150D-02 0.70724969D-02
 0.32318598D-02 0.74603253D-02 0.00000000D+00 0.00000000D+00 0.92848016D-03
    5 Alpha MO OE=-0.51020092D+00
 0.00000000D+00 0.00000000D+00 0.00000000D+00 0.10799078D-01 0.00000000D+00
 0.00000000D+00 0.24392951D-01 0.00000000D+00 0.00000000D+00 0.00000000D+00
 0.00000000D+00 0.00000000D+00-0.32393840D-02 0.24246070D-02 0.00000000D+00
 0.00000000D+00 0.20771319D-01 0.00000000D+00 0.00000000D+00 0.00000000D+00
 0.00000000D+00 0.00000000D+00-0.33466306D-02 0.20871638D-02 0.00000000D+00
 0.00000000D+00 0.00000000D+00 0.00000000D+00 0.00000000D+00 0.36207937D+00
 0.00000000D+00 0.00000000D+00 0.41811166D+00 0.00000000D+00 0.00000000D+00
 0.29727461D+00 0.00000000D+00 0.00000000D+00 0.00000000D+00 0.00000000D+00
 0.00000000D+00 0.00000000D+00-0.55043266D-02 0.00000000D+00 0.00000000D+00
 0.00000000D+00 0.00000000D+00 0.00000000D+00-0.16481801D-01 0.00000000D+00
 0.14094440D-01 0.00000000D+00 0.00000000D+00 0.11376051D-01 0.00000000D+00
 0.00000000D+00 0.93638115D-02 0.00000000D+00 0.00000000D+00 0.00000000D+00
 0.00000000D+00 0.36570775D-01 0.00000000D+00 0.00000000D+00 0.00000000D+00
 0.00000000D+00 0.00000000D+00 0.00000000D+00-0.72782046D-02 0.00000000D+00
 0.22582992D-01 0.00000000D+00 0.00000000D+00 0.14294815D-01 0.00000000D+00
 0.00000000D+00 0.13041187D-01 0.00000000D+00 0.00000000D+00 0.00000000D+00
 0.00000000D+00 0.00000000D+00 0.00000000D+00 0.10799078D-01 0.00000000D+00
 0.00000000D+00 0.24392951D-01 0.00000000D+00 0.00000000D+00 0.00000000D+00
 0.00000000D+00 0.00000000D+00 0.32393840D-02 0.24246070D-02 0.00000000D+00
 0.00000000D+00 0.20771319D-01 0.00000000D+00 0.00000000D+00 0.00000000D+00
 0.00000000D+00 0.00000000D+00 0.33466306D-02 0.20871638D-02 0.00000000D+00
    6 Alpha MO OE= 0.29355136D-01
-0.23866180D-02-0.15140370D+00-0.90304654D+00 0.00000000D+00-0.10575180D-02
 0.98082260D-04 0.00000000D+00 0.77959318D-01-0.62261752D-01 0.19811477D-02
-0.40944518D-02-0.28764150D-02 0.00000000D+00 0.00000000D+00 0.66370106D-02
-0.85935404D+00 0.00000000D+00 0.19619250D+00-0.16980034D+00 0.39262605D-01
-0.69303098D-02 0.13168560D-01 0.00000000D+00 0.00000000D+00 0.38559432D-01
-0.24814938D-01 0.49422169D-01-0.15902185D-01 0.80333322D+00 0.00000000D+00
 0.00000000D+00-0.26856495D-01 0.00000000D+00 0.00000000D+00-0.90218464D-01
 0.00000000D+00 0.00000000D+00-0.23516347D+00-0.34555890D-02-0.43050737D-02
-0.36566410D-02 0.00000000D+00 0.00000000D+00 0.00000000D+00-0.58742142D-01
-0.16802285D-01-0.29871853D-01 0.00000000D+00 0.00000000D+00 0.00000000D+00
 0.00000000D+00 0.00000000D+00 0.41431465D-02 0.00000000D+00 0.00000000D+00
 0.30097182D-02 0.00000000D+00 0.00000000D+00-0.20621764D-02 0.00000000D+00
 0.23943414D+01 0.00000000D+00 0.00000000D+00-0.21254000D+00-0.11181754D+00
-0.72135549D-01-0.10280389D+00 0.00000000D+00 0.00000000D+00 0.00000000D+00
 0.00000000D+00 0.00000000D+00-0.32748684D-02 0.00000000D+00 0.00000000D+00
-0.55320977D-03 0.00000000D+00 0.00000000D+00-0.85849810D-02 0.00000000D+00
-0.23866180D-02-0.15140370D+00-0.90304654D+00 0.00000000D+00 0.10575180D-02
 0.98082260D-04 0.00000000D+00-0.77959318D-01-0.62261752D-01 0.19811477D-02
-0.40944518D-02-0.28764150D-02 0.00000000D+00 0.00000000D+00-0.66370106D-02
-0.85935404D+00 0.00000000D+00-0.19619250D+00-0.16980034D+00 0.39262605D-01
-0.69303098D-02 0.13168560D-01 0.00000000D+00 0.00000000D+00-0.38559432D-01
    7 Alpha MO OE= 0.47591890D-01
-0.10012323D-01 0.16314657D+00 0.15884670D+01 0.00000000D+00-0.10827031D-02
-0.50310047D-03 0.00000000D+00-0.65345796D-01 0.70668683D-01-0.52952520D-02
 0.77094184D-03-0.23629915D-02 0.00000000D+00 0.00000000D+00-0.45779504D-02
 0.34374562D+01 0.00000000D+00-0.30369291D+00 0.33808235D+00-0.55056352D-01
-0.38118807D-01-0.18030647D-01 0.00000000D+00 0.00000000D+00-0.41614464D-01
 0.00000000D+00 0.00000000D+00 0.00000000D+00 0.00000000D+00 0.00000000D+00
-0.28858278D-01 0.00000000D+00 0.00000000D+00-0.86368778D-01 0.00000000D+00
 0.00000000D+00-0.43202828D+00 0.00000000D+00 0.00000000D+00 0.00000000D+00
 0.00000000D+00 0.00000000D+00 0.00000000D+00-0.40093058D-03 0.00000000D+00
 0.00000000D+00 0.00000000D+00 0.00000000D+00 0.00000000D+00 0.32498415D-01
 0.00000000D+00 0.80022612D-04 0.00000000D+00 0.00000000D+00 0.81148617D-03
 0.00000000D+00 0.00000000D+00-0.16434108D-02 0.00000000D+00 0.00000000D+00
 0.00000000D+00 0.00000000D+00-0.11997769D+01 0.00000000D+00 0.00000000D+00
 0.00000000D+00 0.00000000D+00 0.00000000D+00 0.00000000D+00 0.83305436D-01
 0.00000000D+00-0.22455842D-01 0.00000000D+00 0.00000000D+00 0.17624536D-02
 0.00000000D+00 0.00000000D+00-0.82700513D-02 0.00000000D+00 0.00000000D+00
 0.10012323D-01-0.16314657D+00-0.15884670D+01 0.00000000D+00-0.10827031D-02
 0.50310047D-03 0.00000000D+00-0.65345796D-01-0.70668683D-01 0.52952520D-02
-0.77094184D-03 0.23629915D-02 0.00000000D+00 0.00000000D+00-0.45779504D-02
-0.34374562D+01 0.00000000D+00-0.30369291D+00-0.33808235D+00 0.55056352D-01
 0.38118807D-01 0.18030647D-01 0.00000000D+00 0.00000000D+00-0.41614464D-01
    8 Alpha MO OE= 0.12764698D+00
 0.18263072D-01-0.26660734D-01-0.58577278D+01 0.00000000D+00 0.70247856D-02
-0.84368101D-02 0.00000000D+00 0.26589622D+00-0.14199510D+00 0.18933759D-01
 0.98980741D-02 0.12282406D-01 0.00000000D+00 0.00000000D+00 0.59560210D-02
-0.67597486D+00 0.00000000D+00 0.10143959D+01-0.64469192D+00 0.37276321D+00
 0.23428091D+00 0.36660242D+00 0.00000000D+00 0.00000000D+00 0.79841999D-01
 0.13282104D-01 0.81893576D-02 0.37357638D-01 0.19044554D+01 0.00000000D+00
 0.00000000D+00 0.79196281D-01 0.00000000D+00 0.00000000D+00-0.44239346D-01
 0.00000000D+00 0.00000000D+00-0.43384476D+00 0.79088172D-02-0.13242949D-02
 0.21875697D-03 0.00000000D+00 0.00000000D+00 0.00000000D+00 0.11749936D-01
 0.11689335D+00 0.75009938D-01 0.00000000D+00 0.00000000D+00 0.00000000D+00
 0.00000000D+00 0.00000000D+00 0.15357971D-02 0.00000000D+00 0.00000000D+00
-0.95467032D-03 0.00000000D+00 0.00000000D+00 0.32171128D-03 0.00000000D+00
 0.90638449D+01 0.00000000D+00 0.00000000D+00-0.26868109D+01 0.55494901D-01
 0.22481552D+00 0.30622691D+00 0.00000000D+00 0.00000000D+00 0.00000000D+00
 0.00000000D+00 0.00000000D+00-0.11061297D+00 0.00000000D+00 0.00000000D+00
-0.29290492D-01 0.00000000D+00 0.00000000D+00-0.99259978D-01 0.00000000D+00
 0.18263072D-01-0.26660734D-01-0.58577278D+01 0.00000000D+00-0.70247856D-02
-0.84368101D-02 0.00000000D+00-0.26589622D+00-0.14199510D+00 0.18933759D-01
 0.98980741D-02 0.12282406D-01 0.00000000D+00 0.00000000D+00-0.59560210D-02
-0.67597486D+00 0.00000000D+00-0.10143959D+01-0.64469192D+00 0.37276321D+00
 0.23428091D+00 0.36660242D+00 0.00000000D+00 0.00000000D+00-0.79841999D-01
    9 Alpha MO OE= 0.15449494D+00
 0.00000000D+00 0.00000000D+00 0.00000000D+00-0.37667994D-04 0.00000000D+00
 0.00000000D+00-0.85263858D-01 0.00000000D+00 0.00000000D+00 0.00000000D+00
 0.00000000D+00 0.00000000D+00 0.37240432D-02-0.21453161D-02 0.00000000D+00
 0.00000000D+00-0.50429066D+00 0.00000000D+00 0.00000000D+00 0.00000000D+00
 0.00000000D+00 0.00000000D+00 0.90580128D-01-0.59819221D-01 0.00000000D+00
 0.00000000D+00 0.00000000D+00 0.00000000D+00 0.00000000D+00-0.65226508D-01
 0.00000000D+00 0.00000000D+00-0.93961490D-01 0.00000000D+00 0.00000000D+00
-0.21800291D+00 0.00000000D+00 0.00000000D+00 0.00000000D+00 0.00000000D+00
 0.00000000D+00 0.00000000D+00 0.23655543D-03 0.00000000D+00 0.00000000D+00
 0.00000000D+00 0.00000000D+00 0.00000000D+00 0.76086651D-02 0.00000000D+00
 0.33411297D-01 0.00000000D+00 0.00000000D+00 0.99230188D-02 0.00000000D+00
 0.00000000D+00 0.10996169D-01 0.00000000D+00 0.00000000D+00 0.00000000D+00
 0.00000000D+00 0.18055281D+01 0.00000000D+00 0.00000000D+00 0.00000000D+00
 0.00000000D+00 0.00000000D+00 0.00000000D+00-0.21237205D+00 0.00000000D+00
 0.14177411D+00 0.00000000D+00 0.00000000D+00 0.98830393D-01 0.00000000D+00
 0.00000000D+00 0.89309532D-01 0.00000000D+00 0.00000000D+00 0.00000000D+00
 0.00000000D+00 0.00000000D+00 0.00000000D+00-0.37667994D-04 0.00000000D+00
 0.00000000D+00-0.85263858D-01 0.00000000D+00 0.00000000D+00 0.00000000D+00
 0.00000000D+00 0.00000000D+00-0.37240432D-02-0.21453161D-02 0.00000000D+00
 0.00000000D+00-0.50429066D+00 0.00000000D+00 0.00000000D+00 0.00000000D+00
 0.00000000D+00 0.00000000D+00-0.90580128D-01-0.59819221D-01 0.00000000D+00
   10 Alpha MO OE= 0.16980383D+00
 0.30102777D-02-0.83059754D+00 0.42582194D+00 0.00000000D+00 0.91279829D-02
-0.33078608D-02 0.00000000D+00 0.23861108D+00-0.20948925D+00-0.79380172D-02
-0.27401955D-01-0.19942025D-01 0.00000000D+00 0.00000000D+00 0.20423190D-01
-0.76196960D+00 0.00000000D+00 0.65738434D+00-0.70387195D+00-0.18419879D+00
-0.29385923D+00-0.27897501D+00 0.00000000D+00 0.00000000D+00 0.11775553D+00
 0.49735887D-01-0.15487248D+00-0.12460670D+00 0.19843847D+01 0.00000000D+00
 0.00000000D+00 0.42744232D-01 0.00000000D+00 0.00000000D+00-0.79236176D-01
 0.00000000D+00 0.00000000D+00-0.59829871D+00-0.11161547D-01-0.86199706D-02
-0.11941477D-01 0.00000000D+00 0.00000000D+00 0.00000000D+00-0.14291526D+00
-0.40911168D-01-0.77829689D-01 0.00000000D+00 0.00000000D+00 0.00000000D+00
 0.00000000D+00 0.00000000D+00 0.19593582D-01 0.00000000D+00 0.00000000D+00
 0.11527531D-01 0.00000000D+00 0.00000000D+00-0.91872281D-03 0.00000000D+00
 0.27838531D+01 0.00000000D+00 0.00000000D+00 0.95543039D+00-0.20748535D+00
-0.52695799D-01-0.25957730D+00 0.00000000D+00 0.00000000D+00 0.00000000D+00
 0.00000000D+00 0.00000000D+00 0.42629605D-01 0.00000000D+00 0.00000000D+00
 0.14113817D-01 0.00000000D+00 0.00000000D+00 0.12769095D-01 0.00000000D+00
 0.30102777D-02-0.83059754D+00 0.42582194D+00 0.00000000D+00-0.91279829D-02
-0.33078608D-02 0.00000000D+00-0.23861108D+00-0.20948925D+00-0.79380172D-02
-0.27401955D-01-0.19942025D-01 0.00000000D+00 0.00000000D+00-0.20423190D-01
-0.76196960D+00 0.00000000D+00-0.65738434D+00-0.70387195D+00-0.18419879D+00
-0.29385923D+00-0.27897501D+00 0.00000000D+00 0.00000000D+00-0.11775553D+00
   11 Alpha MO OE= 0.18072297D+00
-0.19186965D-01 0.16463663D+00 0.64477587D+01 0.00000000D+00-0.13288025D-01
 0.77527039D-02 0.00000000D+00-0.18697927D+00 0.19981683D+00-0.23128673D-01
-0.61679102D-02-0.13994219D-01 0.00000000D+00 0.00000000D+00-0.13495475D-01
 0.33978242D+01 0.00000000D+00-0.11956352D+01 0.12011705D+01-0.31139760D+00
-0.28257823D+00-0.20636039D+00 0.00000000D+00 0.00000000D+00-0.11481588D+00
 0.00000000D+00 0.00000000D+00 0.00000000D+00 0.00000000D+00 0.00000000D+00
 0.86346247D-01 0.00000000D+00 0.00000000D+00-0.38680948D-01 0.00000000D+00
 0.00000000D+00-0.99123813D+00 0.00000000D+00 0.00000000D+00 0.00000000D+00
 0.00000000D+00 0.00000000D+00 0.00000000D+00-0.60059892D-02 0.00000000D+00
 0.00000000D+00 0.00000000D+00 0.00000000D+00 0.00000000D+00 0.82020549D-01
 0.00000000D+00 0.68325183D-02 0.00000000D+00 0.00000000D+00 0.28310956D-02
 0.00000000D+00 0.00000000D+00-0.24110713D-02 0.00000000D+00 0.00000000D+00
 0.00000000D+00 0.00000000D+00-0.41604564D+01 0.00000000D+00 0.00000000D+00
 0.00000000D+00 0.00000000D+00 0.00000000D+00 0.00000000D+00 0.22130990D+00
 0.00000000D+00-0.56754529D-01 0.00000000D+00 0.00000000D+00 0.66495771D-02
 0.00000000D+00 0.00000000D+00-0.23424256D-01 0.00000000D+00 0.00000000D+00
 0.19186965D-01-0.16463663D+00-0.64477587D+01 0.00000000D+00-0.13288025D-01
-0.77527039D-02 0.00000000D+00-0.18697927D+00-0.19981683D+00 0.23128673D-01
 0.61679102D-02 0.13994219D-01 0.00000000D+00 0.00000000D+00-0.13495475D-01
-0.33978242D+01 0.00000000D+00-0.11956352D+01-0.12011705D+01 0.31139760D+00
 0.28257823D+00 0.20636039D+00 0.00000000D+00 0.00000000D+00-0.11481588D+00
   12 Alpha MO OE= 0.21407280D+00
-0.12222483D-01-0.13056427D+01 0.28533429D+01 0.00000000D+00-0.36199981D-02
-0.47948718D-03 0.00000000D+00 0.17019317D+00-0.18504890D+00-0.20663554D-01
-0.31536489D-01-0.32307608D-01 0.00000000D+00 0.00000000D+00 0.10684166D-01
-0.24515097D+00 0.00000000D+00 0.80309850D+00-0.69111358D+00-0.52369491D+00
-0.60757786D+00-0.59635030D+00 0.00000000D+00 0.00000000D+00 0.84578263D-01
 0.00000000D+00 0.00000000D+00 0.00000000D+00 0.00000000D+00 0.00000000D+00
-0.82147172D-01 0.00000000D+00 0.00000000D+00-0.27515264D-01 0.00000000D+00
 0.00000000D+00 0.10029558D+01 0.00000000D+00 0.00000000D+00 0.00000000D+00
 0.00000000D+00 0.00000000D+00 0.00000000D+00-0.61148897D-02 0.00000000D+00
 0.00000000D+00 0.00000000D+00 0.00000000D+00 0.00000000D+00-0.37687801D-01
 0.00000000D+00-0.19813715D-01 0.00000000D+00 0.00000000D+00-0.10212986D-01
 0.00000000D+00 0.00000000D+00-0.43035055D-02 0.00000000D+00 0.00000000D+00
 0.00000000D+00 0.00000000D+00-0.18461910D+01 0.00000000D+00 0.00000000D+00
 0.00000000D+00 0.00000000D+00 0.00000000D+00 0.00000000D+00-0.78890439D-01
 0.00000000D+00-0.73006359D-01 0.00000000D+00 0.00000000D+00-0.32838591D-01
 0.00000000D+00 0.00000000D+00-0.62130869D-01 0.00000000D+00 0.00000000D+00
 0.12222483D-01 0.13056427D+01-0.28533429D+01 0.00000000D+00-0.36199981D-02
 0.47948718D-03 0.00000000D+00 0.17019317D+00 0.18504890D+00 0.20663554D-01
 0.31536489D-01 0.32307608D-01 0.00000000D+00 0.00000000D+00 0.10684166D-01
 0.24515097D+00 0.00000000D+00 0.80309850D+00 0.69111358D+00 0.52369491D+00
 0.60757786D+00 0.59635030D+00 0.00000000D+00 0.00000000D+00 0.84578263D-01
   13 Alpha MO OE= 0.24092283D+00
-0.43133993D-02 0.62469997D+00-0.38746844D+01 0.00000000D+00 0.12702302D-01
-0.87901562D-03 0.00000000D+00-0.17723080D+00-0.25825944D+00 0.98144240D-02
 0.19935461D-01 0.62759697D-02 0.00000000D+00 0.00000000D+00 0.14331498D-01
-0.18238135D+00 0.00000000D+00-0.67161485D+00-0.10452906D+01 0.39624420D+00
 0.55190445D+00 0.14562070D+00 0.00000000D+00 0.00000000D+00 0.67431679D-01
-0.30467022D-02-0.55995069D-01-0.67736344D-01-0.10357624D+00 0.00000000D+00
 0.00000000D+00-0.12929343D-01 0.00000000D+00 0.00000000D+00-0.56653740D-01
 0.00000000D+00 0.00000000D+00 0.99997378D+00-0.29328295D-02-0.12925999D-01
 0.54627251D-03 0.00000000D+00 0.00000000D+00 0.00000000D+00-0.78951842D-01
-0.19729781D-01-0.96258239D-01 0.00000000D+00 0.00000000D+00 0.00000000D+00
 0.00000000D+00 0.00000000D+00-0.72250197D-02 0.00000000D+00 0.00000000D+00
 0.31891279D-02 0.00000000D+00 0.00000000D+00-0.12728581D-02 0.00000000D+00
 0.59254165D+01 0.00000000D+00 0.00000000D+00-0.82488433D-01-0.30778831D+00
 0.32770858D+00-0.89689934D+00 0.00000000D+00 0.00000000D+00 0.00000000D+00
 0.00000000D+00 0.00000000D+00 0.31222891D-01 0.00000000D+00 0.00000000D+00
-0.36501657D-01 0.00000000D+00 0.00000000D+00-0.74203243D-01 0.00000000D+00
-0.43133993D-02 0.62469997D+00-0.38746844D+01 0.00000000D+00-0.12702302D-01
-0.87901562D-03 0.00000000D+00 0.17723080D+00-0.25825944D+00 0.98144240D-02
 0.19935461D-01 0.62759697D-02 0.00000000D+00 0.00000000D+00-0.14331498D-01
-0.18238135D+00 0.00000000D+00 0.67161485D+00-0.10452906D+01 0.39624420D+00
 0.55190445D+00 0.14562070D+00 0.00000000D+00 0.00000000D+00-0.67431679D-01
   14 Alpha MO OE= 0.26499756D+00
 0.00000000D+00 0.00000000D+00 0.00000000D+00-0.16956422D-02 0.00000000D+00
 0.00000000D+00 0.28654911D+00 0.00000000D+00 0.00000000D+00 0.00000000D+00
 0.00000000D+00 0.00000000D+00-0.51995570D-02 0.31790551D-02 0.00000000D+00
 0.00000000D+00 0.17945487D+01 0.00000000D+00 0.00000000D+00 0.00000000D+00
 0.00000000D+00 0.00000000D+00-0.25000942D+00 0.22229037D+00 0.00000000D+00
 0.00000000D+00 0.00000000D+00 0.00000000D+00 0.00000000D+00 0.00000000D+00
 0.00000000D+00 0.00000000D+00 0.00000000D+00 0.00000000D+00 0.00000000D+00
 0.00000000D+00 0.00000000D+00 0.00000000D+00 0.00000000D+00 0.00000000D+00
 0.00000000D+00 0.54670801D-02 0.00000000D+00 0.00000000D+00 0.00000000D+00
 0.00000000D+00 0.00000000D+00-0.15140954D-01 0.00000000D+00 0.00000000D+00
 0.00000000D+00 0.00000000D+00 0.00000000D+00 0.00000000D+00 0.00000000D+00
 0.00000000D+00 0.00000000D+00 0.00000000D+00 0.00000000D+00-0.11679641D-01
 0.00000000D+00 0.00000000D+00 0.00000000D+00 0.00000000D+00 0.00000000D+00
 0.00000000D+00 0.00000000D+00-0.70347355D+00 0.00000000D+00 0.00000000D+00
 0.00000000D+00 0.00000000D+00 0.00000000D+00 0.00000000D+00 0.00000000D+00
 0.00000000D+00 0.00000000D+00 0.00000000D+00 0.00000000D+00 0.97796794D-01
 0.00000000D+00 0.00000000D+00 0.00000000D+00 0.16956422D-02 0.00000000D+00
 0.00000000D+00-0.28654911D+00 0.00000000D+00 0.00000000D+00 0.00000000D+00
 0.00000000D+00 0.00000000D+00-0.51995570D-02-0.31790551D-02 0.00000000D+00
 0.00000000D+00-0.17945487D+01 0.00000000D+00 0.00000000D+00 0.00000000D+00
 0.00000000D+00 0.00000000D+00-0.25000942D+00-0.22229037D+00 0.00000000D+00
   15 Alpha MO OE= 0.28267530D+00
 0.43846815D-01 0.12384832D+01-0.49789254D+01 0.00000000D+00 0.96121315D-02
-0.15114097D-01 0.00000000D+00 0.18551956D+00 0.98212710D-01 0.38678114D-01
 0.44872181D-02 0.16780449D-01 0.00000000D+00 0.00000000D+00 0.21074149D-01
-0.23658575D+00 0.00000000D+00 0.97620736D-01 0.12354644D+01 0.65539738D+00
 0.46389180D+00 0.78760032D+00 0.00000000D+00 0.00000000D+00 0.32918552D-02
 0.20415103D-02-0.17430082D+00-0.20829991D+00-0.10121156D+01 0.00000000D+00
 0.00000000D+00-0.56975391D-01 0.00000000D+00 0.00000000D+00-0.18901920D+00
 0.00000000D+00 0.00000000D+00-0.55977610D+00-0.13796080D-01-0.13090492D-01
-0.18460555D-01 0.00000000D+00 0.00000000D+00 0.00000000D+00-0.23921886D+00
-0.19018521D+00-0.18511745D+00 0.00000000D+00 0.00000000D+00 0.00000000D+00
 0.00000000D+00 0.00000000D+00 0.13472712D-01 0.00000000D+00 0.00000000D+00
 0.70424027D-02 0.00000000D+00 0.00000000D+00-0.16617827D-01 0.00000000D+00
 0.82746137D+01 0.00000000D+00 0.00000000D+00-0.28052334D+01-0.92662661D+00
-0.15757903D+01-0.64943424D+00 0.00000000D+00 0.00000000D+00 0.00000000D+00
 0.00000000D+00 0.00000000D+00-0.17109328D-01 0.00000000D+00 0.00000000D+00
 0.17907537D-01 0.00000000D+00 0.00000000D+00 0.51606702D-01 0.00000000D+00
 0.43846815D-01 0.12384832D+01-0.49789254D+01 0.00000000D+00-0.96121315D-02
-0.15114097D-01 0.00000000D+00-0.18551956D+00 0.98212710D-01 0.38678114D-01
 0.44872181D-02 0.16780449D-01 0.00000000D+00 0.00000000D+00-0.21074149D-01
-0.23658575D+00 0.00000000D+00-0.97620736D-01 0.12354644D+01 0.65539738D+00
 0.46389180D+00 0.78760032D+00 0.00000000D+00 0.00000000D+00-0.32918552D-02
   16 Alpha MO OE= 0.29414592D+00
 0.00000000D+00 0.00000000D+00 0.00000000D+00 0.79346727D-02 0.00000000D+00
 0.00000000D+00-0.27005061D+00 0.00000000D+00 0.00000000D+00 0.00000000D+00
 0.00000000D+00 0.00000000D+00-0.14361266D-03 0.12040417D-03 0.00000000D+00
 0.00000000D+00-0.19421801D+01 0.00000000D+00 0.00000000D+00 0.00000000D+00
 0.00000000D+00 0.00000000D+00 0.27305023D+00-0.15874065D+00 0.00000000D+00
 0.00000000D+00 0.00000000D+00 0.00000000D+00 0.00000000D+00 0.47578655D-01
 0.00000000D+00 0.00000000D+00 0.50579258D-01 0.00000000D+00 0.00000000D+00
 0.22757924D+01 0.00000000D+00 0.00000000D+00 0.00000000D+00 0.00000000D+00
 0.00000000D+00 0.00000000D+00 0.34566625D-02 0.00000000D+00 0.00000000D+00
 0.00000000D+00 0.00000000D+00 0.00000000D+00-0.52453170D-02 0.00000000D+00
-0.26279079D-01 0.00000000D+00 0.00000000D+00-0.24145130D-01 0.00000000D+00
 0.00000000D+00-0.22842088D-01 0.00000000D+00 0.00000000D+00 0.00000000D+00
 0.00000000D+00 0.19464805D+01 0.00000000D+00 0.00000000D+00 0.00000000D+00
 0.00000000D+00 0.00000000D+00 0.00000000D+00-0.53802274D+00 0.00000000D+00
-0.31313894D+00 0.00000000D+00 0.00000000D+00-0.44631481D-01 0.00000000D+00
 0.00000000D+00-0.67923777D-01 0.00000000D+00 0.00000000D+00 0.00000000D+00
 0.00000000D+00 0.00000000D+00 0.00000000D+00 0.79346727D-02 0.00000000D+00
 0.00000000D+00-0.27005061D+00 0.00000000D+00 0.00000000D+00 0.00000000D+00
 0.00000000D+00 0.00000000D+00 0.14361266D-03 0.12040417D-03 0.00000000D+00
 0.00000000D+00-0.19421801D+01 0.00000000D+00 0.00000000D+00 0.00000000D+00
 0.00000000D+00 0.00000000D+00-0.27305023D+00-0.15874065D+00 0.00000000D+00
   17 Alpha MO OE= 0.36536087D+00
 0.22249582D-01-0.71515052D+00 0.48102604D+01 0.00000000D+00 0.26638993D-02
 0.63920727D-02 0.00000000D+00-0.21183452D+00-0.17977879D+00 0.12773893D-01
 0.53711760D-02 0.55077089D-03 0.00000000D+00 0.00000000D+00-0.12342304D-01
-0.65346501D+00 0.00000000D+00-0.45916007D+01-0.17638257D+01-0.31049158D+00
 0.44082340D+00-0.40664700D+00 0.00000000D+00 0.00000000D+00 0.13244129D+00
 0.00000000D+00 0.00000000D+00 0.00000000D+00 0.00000000D+00 0.00000000D+00
 0.15606605D-01 0.00000000D+00 0.00000000D+00-0.41172114D-01 0.00000000D+00
 0.00000000D+00 0.15118026D+01 0.00000000D+00 0.00000000D+00 0.00000000D+00
 0.00000000D+00 0.00000000D+00 0.00000000D+00-0.24345426D-02 0.00000000D+00
 0.00000000D+00 0.00000000D+00 0.00000000D+00 0.00000000D+00 0.26867205D-01
 0.00000000D+00-0.86931715D-02 0.00000000D+00 0.00000000D+00 0.39289815D-02
 0.00000000D+00 0.00000000D+00 0.64610422D-02 0.00000000D+00 0.00000000D+00
 0.00000000D+00 0.00000000D+00 0.31300944D+01 0.00000000D+00 0.00000000D+00
 0.00000000D+00 0.00000000D+00 0.00000000D+00 0.00000000D+00-0.25184835D+00
 0.00000000D+00 0.46463010D-01 0.00000000D+00 0.00000000D+00-0.37048333D-01
 0.00000000D+00 0.00000000D+00-0.77221487D-01 0.00000000D+00 0.00000000D+00
-0.22249582D-01 0.71515052D+00-0.48102604D+01 0.00000000D+00 0.26638993D-02
-0.63920727D-02 0.00000000D+00-0.21183452D+00 0.17977879D+00-0.12773893D-01
-0.53711760D-02-0.55077089D-03 0.00000000D+00 0.00000000D+00-0.12342304D-01
 0.65346501D+00 0.00000000D+00-0.45916007D+01 0.17638257D+01 0.31049158D+00
-0.44082340D+00 0.40664700D+00 0.00000000D+00 0.00000000D+00 0.13244129D+00
   18 Alpha MO OE= 0.41207306D+00
 0.13474551D-02-0.55199162D+00-0.10834534D+02 0.00000000D+00-0.12386625D-01
 0.30365109D-02 0.00000000D+00 0.36557550D+00-0.23939343D+00 0.15831956D-01
 0.20775339D-01 0.11742773D-01 0.00000000D+00 0.00000000D+00 0.26793649D-02
-0.73662955D+00 0.00000000D+00 0.27560132D+01-0.22503817D+01 0.42097177D+00
 0.14067409D+00 0.32411786D+00 0.00000000D+00 0.00000000D+00 0.19366903D+00
-0.34423796D-01 0.27256491D+00 0.15685673D+00 0.59989034D+01 0.00000000D+00
 0.00000000D+00-0.10881684D+00 0.00000000D+00 0.00000000D+00-0.30328685D+00
 0.00000000D+00 0.00000000D+00-0.20940988D+01 0.10314067D-01-0.81901708D-02
-0.96176970D-04 0.00000000D+00 0.00000000D+00 0.00000000D+00 0.34533031D-01
 0.20317491D+00 0.16740377D+00 0.00000000D+00 0.00000000D+00 0.00000000D+00
 0.00000000D+00 0.00000000D+00 0.23943509D-01 0.00000000D+00 0.00000000D+00
 0.99946498D-02 0.00000000D+00 0.00000000D+00 0.13847229D-01 0.00000000D+00
 0.14795453D+02 0.00000000D+00 0.00000000D+00-0.17469782D+01 0.92496497D+00
 0.11836776D+01 0.10846920D+01 0.00000000D+00 0.00000000D+00 0.00000000D+00
 0.00000000D+00 0.00000000D+00 0.53867138D-01 0.00000000D+00 0.00000000D+00
 0.43707283D-01 0.00000000D+00 0.00000000D+00-0.53815806D-01 0.00000000D+00
 0.13474551D-02-0.55199162D+00-0.10834534D+02 0.00000000D+00 0.12386625D-01
 0.30365109D-02 0.00000000D+00-0.36557550D+00-0.23939343D+00 0.15831956D-01
 0.20775339D-01 0.11742773D-01 0.00000000D+00 0.00000000D+00-0.26793649D-02
-0.73662955D+00 0.00000000D+00-0.27560132D+01-0.22503817D+01 0.42097177D+00
 0.14067409D+00 0.32411786D+00 0.00000000D+00 0.00000000D+00-0.19366903D+00
   19 Alpha MO OE= 0.46211913D+00
-0.25325696D-01-0.35583774D+00 0.14509573D+02 0.00000000D+00 0.21731093D-02
-0.52257663D-02 0.00000000D+00-0.15594209D+00 0.20942330D+00-0.27202184D-01
-0.75423222D-02-0.17222185D-01 0.00000000D+00 0.00000000D+00-0.18079600D-01
 0.21934057D+01 0.00000000D+00-0.40212885D+01 0.26005645D+01-0.54052786D+00
-0.30159668D+00-0.31178505D+00 0.00000000D+00 0.00000000D+00-0.20658743D+00
 0.00000000D+00 0.00000000D+00 0.00000000D+00 0.00000000D+00 0.00000000D+00
-0.13305397D+00 0.00000000D+00 0.00000000D+00-0.24145350D+00 0.00000000D+00
 0.00000000D+00-0.29599959D+01 0.00000000D+00 0.00000000D+00 0.00000000D+00
 0.00000000D+00 0.00000000D+00 0.00000000D+00-0.26061715D-02 0.00000000D+00
 0.00000000D+00 0.00000000D+00 0.00000000D+00 0.00000000D+00 0.92388720D-01
 0.00000000D+00 0.35710225D-01 0.00000000D+00 0.00000000D+00 0.22762115D-01
 0.00000000D+00 0.00000000D+00 0.66441616D-02 0.00000000D+00 0.00000000D+00
 0.00000000D+00 0.00000000D+00-0.36404291D+01 0.00000000D+00 0.00000000D+00
 0.00000000D+00 0.00000000D+00 0.00000000D+00 0.00000000D+00-0.15208495D+00
 0.00000000D+00 0.29473811D+00 0.00000000D+00 0.00000000D+00 0.14490290D+00
 0.00000000D+00 0.00000000D+00 0.18249042D+00 0.00000000D+00 0.00000000D+00
 0.25325696D-01 0.35583774D+00-0.14509573D+02 0.00000000D+00 0.21731093D-02
 0.52257663D-02 0.00000000D+00-0.15594209D+00-0.20942330D+00 0.27202184D-01
 0.75423222D-02 0.17222185D-01 0.00000000D+00 0.00000000D+00-0.18079600D-01
-0.21934057D+01 0.00000000D+00-0.40212885D+01-0.26005645D+01 0.54052786D+00
 0.30159668D+00 0.31178505D+00 0.00000000D+00 0.00000000D+00-0.20658743D+00
   20 Alpha MO OE= 0.52082545D+00
-0.19351467D+00-0.38134057D+01 0.11491519D+02 0.00000000D+00-0.18004785D-01
 0.21415483D-01 0.00000000D+00 0.21410358D+00-0.24341995D+00-0.50154606D-01
-0.67074672D-01-0.69259441D-01 0.00000000D+00 0.00000000D+00 0.12475359D-01
 0.51554451D+00 0.00000000D+00-0.16642789D+01 0.41495298D+00-0.14855420D+01
-0.14305033D+01-0.15643315D+01 0.00000000D+00 0.00000000D+00 0.14844298D+00
 0.00000000D+00 0.00000000D+00 0.00000000D+00 0.00000000D+00 0.00000000D+00
 0.10217654D+00 0.00000000D+00 0.00000000D+00 0.22790467D+00 0.00000000D+00
 0.00000000D+00 0.18411856D+01 0.00000000D+00 0.00000000D+00 0.00000000D+00
 0.00000000D+00 0.00000000D+00 0.00000000D+00 0.57532536D-02 0.00000000D+00
 0.00000000D+00 0.00000000D+00 0.00000000D+00 0.00000000D+00 0.31459258D-01
 0.00000000D+00-0.78288841D-02 0.00000000D+00 0.00000000D+00-0.34489592D-02
 0.00000000D+00 0.00000000D+00-0.32293237D-02 0.00000000D+00 0.00000000D+00
 0.00000000D+00 0.00000000D+00-0.27175657D+01 0.00000000D+00 0.00000000D+00
 0.00000000D+00 0.00000000D+00 0.00000000D+00 0.00000000D+00-0.26783740D+00
 0.00000000D+00 0.21238621D-01 0.00000000D+00 0.00000000D+00-0.14851571D-02
 0.00000000D+00 0.00000000D+00-0.55928527D-01 0.00000000D+00 0.00000000D+00
 0.19351467D+00 0.38134057D+01-0.11491519D+02 0.00000000D+00-0.18004785D-01
-0.21415483D-01 0.00000000D+00 0.21410358D+00 0.24341995D+00 0.50154606D-01
 0.67074672D-01 0.69259441D-01 0.00000000D+00 0.00000000D+00 0.12475359D-01
-0.51554451D+00 0.00000000D+00-0.16642789D+01-0.41495298D+00 0.14855420D+01
 0.14305033D+01 0.15643315D+01 0.00000000D+00 0.00000000D+00 0.14844298D+00
   21 Alpha MO OE= 0.54991481D+00
-0.18654593D+00-0.35441108D+01 0.11146932D+02 0.00000000D+00-0.22460734D-01
 0.43328280D-02 0.00000000D+00 0.36989580D+00-0.90306882D-01-0.48127044D-01
-0.97709670D-01-0.66985696D-01 0.00000000D+00 0.00000000D+00 0.23908425D-01
 0.13019056D-01 0.00000000D+00-0.74206020D+00 0.10192782D+01-0.14073258D+01
-0.16840404D+01-0.14091421D+01 0.00000000D+00 0.00000000D+00 0.10556287D+00
-0.59543799D-01 0.75871618D-01-0.12362973D+00 0.26417045D+01 0.00000000D+00
 0.00000000D+00-0.28406536D-01 0.00000000D+00 0.00000000D+00-0.16406230D+00
 0.00000000D+00 0.00000000D+00-0.15168217D+01-0.11831772D-01-0.16046154D-01
-0.16151388D-01 0.00000000D+00 0.00000000D+00 0.00000000D+00-0.18520450D+00
-0.23111129D+00-0.14508904D+00 0.00000000D+00 0.00000000D+00 0.00000000D+00
 0.00000000D+00 0.00000000D+00 0.20127181D-01 0.00000000D+00 0.00000000D+00
 0.91556796D-02 0.00000000D+00 0.00000000D+00-0.75574155D-02 0.00000000D+00
-0.10842533D+02 0.00000000D+00 0.00000000D+00 0.21146740D+01-0.59633247D+00
-0.95766519D+00-0.27537103D+00 0.00000000D+00 0.00000000D+00 0.00000000D+00
 0.00000000D+00 0.00000000D+00 0.14643874D-01 0.00000000D+00 0.00000000D+00
 0.27659700D-01 0.00000000D+00 0.00000000D+00 0.12705507D+00 0.00000000D+00
-0.18654593D+00-0.35441108D+01 0.11146932D+02 0.00000000D+00 0.22460734D-01
 0.43328280D-02 0.00000000D+00-0.36989580D+00-0.90306882D-01-0.48127044D-01
-0.97709670D-01-0.66985696D-01 0.00000000D+00 0.00000000D+00-0.23908425D-01
 0.13019056D-01 0.00000000D+00 0.74206020D+00 0.10192782D+01-0.14073258D+01
-0.16840404D+01-0.14091421D+01 0.00000000D+00 0.00000000D+00-0.10556287D+00
   22 Alpha MO OE= 0.67388484D+00
-0.95535583D-03-0.35267991D+01-0.40315150D+00 0.00000000D+00-0.79258801D-02
-0.38393007D-01 0.00000000D+00 0.15671367D+01-0.42279736D+00 0.28824139D-01
-0.56211204D-01-0.11085558D-01 0.00000000D+00 0.00000000D+00 0.26073705D-01
 0.51899247D-02 0.00000000D+00 0.52098186D+00 0.93239305D+00 0.33485297D-02
-0.72129278D+00 0.50894283D+00 0.00000000D+00 0.00000000D+00 0.24838575D+00
 0.21543676D-01-0.69311023D-01 0.68193649D-01 0.61964190D+01 0.00000000D+00
 0.00000000D+00-0.54827220D-01 0.00000000D+00 0.00000000D+00-0.84305596D+00
 0.00000000D+00 0.00000000D+00-0.18026003D+01 0.12848034D-01 0.75911612D-02
 0.22881096D-01 0.00000000D+00 0.00000000D+00 0.00000000D+00-0.40284703D-01
 0.32669252D+00 0.34039739D+00 0.00000000D+00 0.00000000D+00 0.00000000D+00
 0.00000000D+00 0.00000000D+00-0.70625883D-01 0.00000000D+00 0.00000000D+00
-0.37415681D-01 0.00000000D+00 0.00000000D+00-0.43114528D-01 0.00000000D+00
 0.68442513D+00 0.00000000D+00 0.00000000D+00-0.12709545D+01-0.13157217D+01
-0.73410743D+00 0.14927090D+01 0.00000000D+00 0.00000000D+00 0.00000000D+00
 0.00000000D+00 0.00000000D+00-0.11646117D+01 0.00000000D+00 0.00000000D+00
-0.34712144D+00 0.00000000D+00 0.00000000D+00-0.63685654D+00 0.00000000D+00
-0.95535583D-03-0.35267991D+01-0.40315150D+00 0.00000000D+00 0.79258801D-02
-0.38393007D-01 0.00000000D+00-0.15671367D+01-0.42279736D+00 0.28824139D-01
-0.56211204D-01-0.11085558D-01 0.00000000D+00 0.00000000D+00-0.26073705D-01
 0.51899247D-02 0.00000000D+00-0.52098186D+00 0.93239305D+00 0.33485297D-02
-0.72129278D+00 0.50894283D+00 0.00000000D+00 0.00000000D+00-0.24838575D+00
   23 Alpha MO OE= 0.69939534D+00
-0.53767659D-01-0.40617002D+01 0.24613101D+01 0.00000000D+00 0.42925051D-01
 0.63864532D-02 0.00000000D+00 0.10700208D+01-0.13686460D+01-0.69029587D-02
-0.72569532D-01-0.61013339D-01 0.00000000D+00 0.00000000D+00 0.82420717D-01
-0.13873436D+00 0.00000000D+00-0.88434325D+00-0.46036412D+00-0.19436635D+00
-0.27902285D+00-0.86755223D+00 0.00000000D+00 0.00000000D+00 0.61909583D+00
-0.43525135D-01-0.10066500D+00-0.18967829D+00 0.77466975D+01 0.00000000D+00
 0.00000000D+00-0.43033030D-01 0.00000000D+00 0.00000000D+00-0.92604026D+00
 0.00000000D+00 0.00000000D+00 0.11412452D+01-0.14996053D-01-0.69482596D-02
-0.12301520D-01 0.00000000D+00 0.00000000D+00 0.00000000D+00-0.40862394D+00
 0.22891542D+00-0.18272114D+00 0.00000000D+00 0.00000000D+00 0.00000000D+00
 0.00000000D+00 0.00000000D+00-0.55787091D-01 0.00000000D+00 0.00000000D+00
-0.78454031D-02 0.00000000D+00 0.00000000D+00-0.43230421D-01 0.00000000D+00
-0.36746243D+00 0.00000000D+00 0.00000000D+00 0.71276230D+00-0.23450426D+01
 0.64612078D+00-0.24101742D+01 0.00000000D+00 0.00000000D+00 0.00000000D+00
 0.00000000D+00 0.00000000D+00-0.76058323D+00 0.00000000D+00 0.00000000D+00
-0.38412786D+00 0.00000000D+00 0.00000000D+00-0.68076146D+00 0.00000000D+00
-0.53767659D-01-0.40617002D+01 0.24613101D+01 0.00000000D+00-0.42925051D-01
 0.63864532D-02 0.00000000D+00-0.10700208D+01-0.13686460D+01-0.69029587D-02
-0.72569532D-01-0.61013339D-01 0.00000000D+00 0.00000000D+00-0.82420717D-01
-0.13873436D+00 0.00000000D+00 0.88434325D+00-0.46036412D+00-0.19436635D+00
-0.27902285D+00-0.86755223D+00 0.00000000D+00 0.00000000D+00-0.61909583D+00
   24 Alpha MO OE= 0.71150199D+00
 0.00000000D+00 0.00000000D+00 0.00000000D+00 0.21770155D-01 0.00000000D+00
 0.00000000D+00-0.43985101D+00 0.00000000D+00 0.00000000D+00 0.00000000D+00
 0.00000000D+00 0.00000000D+00 0.17041480D-01-0.47695416D-02 0.00000000D+00
 0.00000000D+00-0.10304208D+01 0.00000000D+00 0.00000000D+00 0.00000000D+00
 0.00000000D+00 0.00000000D+00 0.28486135D+00-0.42457147D+00 0.00000000D+00
 0.00000000D+00 0.00000000D+00 0.00000000D+00 0.00000000D+00 0.15941296D+00
 0.00000000D+00 0.00000000D+00 0.24875111D+00 0.00000000D+00 0.00000000D+00
 0.75290413D-01 0.00000000D+00 0.00000000D+00 0.00000000D+00 0.00000000D+00
 0.00000000D+00 0.00000000D+00-0.23094540D-01 0.00000000D+00 0.00000000D+00
 0.00000000D+00 0.00000000D+00 0.00000000D+00-0.15095915D-01 0.00000000D+00
 0.10443049D+00 0.00000000D+00 0.00000000D+00 0.26967550D-01 0.00000000D+00
 0.00000000D+00 0.44691370D-01 0.00000000D+00 0.00000000D+00 0.00000000D+00
 0.00000000D+00 0.13809804D+01 0.00000000D+00 0.00000000D+00 0.00000000D+00
 0.00000000D+00 0.00000000D+00 0.00000000D+00-0.12290592D+01 0.00000000D+00
 0.50755047D+00 0.00000000D+00 0.00000000D+00 0.42967923D+00 0.00000000D+00
 0.00000000D+00 0.31547772D+00 0.00000000D+00 0.00000000D+00 0.00000000D+00
 0.00000000D+00 0.00000000D+00 0.00000000D+00 0.21770155D-01 0.00000000D+00
 0.00000000D+00-0.43985101D+00 0.00000000D+00 0.00000000D+00 0.00000000D+00
 0.00000000D+00 0.00000000D+00-0.17041480D-01-0.47695416D-02 0.00000000D+00
 0.00000000D+00-0.10304208D+01 0.00000000D+00 0.00000000D+00 0.00000000D+00
 0.00000000D+00 0.00000000D+00-0.28486135D+00-0.42457147D+00 0.00000000D+00
   25 Alpha MO OE= 0.72187832D+00
 0.00000000D+00 0.00000000D+00 0.00000000D+00 0.36539235D-01 0.00000000D+00
 0.00000000D+00-0.67248972D+00 0.00000000D+00 0.00000000D+00 0.00000000D+00
 0.00000000D+00 0.00000000D+00 0.16480627D-01-0.12645059D-01 0.00000000D+00
 0.00000000D+00-0.16985990D+01 0.00000000D+00 0.00000000D+00 0.00000000D+00
 0.00000000D+00 0.00000000D+00 0.71389672D+00-0.52020226D+00 0.00000000D+00
 0.00000000D+00 0.00000000D+00 0.00000000D+00 0.00000000D+00 0.00000000D+00
 0.00000000D+00 0.00000000D+00 0.00000000D+00 0.00000000D+00 0.00000000D+00
 0.00000000D+00 0.00000000D+00 0.00000000D+00 0.00000000D+00 0.00000000D+00
 0.00000000D+00 0.14240086D-01 0.00000000D+00 0.00000000D+00 0.00000000D+00
 0.00000000D+00 0.00000000D+00 0.11081508D+00 0.00000000D+00 0.00000000D+00
 0.00000000D+00 0.00000000D+00 0.00000000D+00 0.00000000D+00 0.00000000D+00
 0.00000000D+00 0.00000000D+00 0.00000000D+00 0.00000000D+00 0.23083410D-01
 0.00000000D+00 0.00000000D+00 0.00000000D+00 0.00000000D+00 0.00000000D+00
 0.00000000D+00 0.00000000D+00 0.20763760D+01 0.00000000D+00 0.00000000D+00
 0.00000000D+00 0.00000000D+00 0.00000000D+00 0.00000000D+00 0.00000000D+00
 0.00000000D+00 0.00000000D+00 0.00000000D+00 0.00000000D+00-0.25422070D+00
 0.00000000D+00 0.00000000D+00 0.00000000D+00-0.36539235D-01 0.00000000D+00
 0.00000000D+00 0.67248972D+00 0.00000000D+00 0.00000000D+00 0.00000000D+00
 0.00000000D+00 0.00000000D+00 0.16480627D-01 0.12645059D-01 0.00000000D+00
 0.00000000D+00 0.16985990D+01 0.00000000D+00 0.00000000D+00 0.00000000D+00
 0.00000000D+00 0.00000000D+00 0.71389672D+00 0.52020226D+00 0.00000000D+00
   26 Alpha MO OE= 0.76084284D+00
 0.92996473D-02 0.80199729D+01-0.48265019D+01 0.00000000D+00-0.29124560D-01
 0.15219286D-01 0.00000000D+00-0.16653902D+01 0.13578953D+01-0.10766050D-01
 0.79072274D-01 0.29971774D-01 0.00000000D+00 0.00000000D+00-0.79464450D-01
 0.37480562D+00 0.00000000D+00 0.52857499D+00-0.50702317D+00 0.78891182D+00
 0.12804725D+01 0.12724523D+01 0.00000000D+00 0.00000000D+00-0.44965457D+00
 0.00000000D+00 0.00000000D+00 0.00000000D+00 0.00000000D+00 0.00000000D+00
-0.70447084D-01 0.00000000D+00 0.00000000D+00-0.13483380D+01 0.00000000D+00
 0.00000000D+00-0.33134492D+01 0.00000000D+00 0.00000000D+00 0.00000000D+00
 0.00000000D+00 0.00000000D+00 0.00000000D+00-0.40254281D-02 0.00000000D+00
 0.00000000D+00 0.00000000D+00 0.00000000D+00 0.00000000D+00 0.59754856D+00
 0.00000000D+00-0.96088370D-01 0.00000000D+00 0.00000000D+00-0.45673392D-01
 0.00000000D+00 0.00000000D+00-0.49384147D-01 0.00000000D+00 0.00000000D+00
 0.00000000D+00 0.00000000D+00 0.28921650D+00 0.00000000D+00 0.00000000D+00
 0.00000000D+00 0.00000000D+00 0.00000000D+00 0.00000000D+00 0.32708161D+01
 0.00000000D+00-0.15285232D+01 0.00000000D+00 0.00000000D+00-0.43410111D+00
 0.00000000D+00 0.00000000D+00-0.85916499D+00 0.00000000D+00 0.00000000D+00
-0.92996473D-02-0.80199729D+01 0.48265019D+01 0.00000000D+00-0.29124560D-01
-0.15219286D-01 0.00000000D+00-0.16653902D+01-0.13578953D+01 0.10766050D-01
-0.79072274D-01-0.29971774D-01 0.00000000D+00 0.00000000D+00-0.79464450D-01
-0.37480562D+00 0.00000000D+00 0.52857499D+00 0.50702317D+00-0.78891182D+00
-0.12804725D+01-0.12724523D+01 0.00000000D+00 0.00000000D+00-0.44965457D+00
   27 Alpha MO OE= 0.77458697D+00
 0.77789500D-01 0.21817518D+01-0.57255467D+01 0.00000000D+00 0.30081692D-01
-0.39621083D-01 0.00000000D+00 0.71339652D+00-0.22252224D+00 0.60787739D-01
-0.35335876D-01 0.41513402D-03 0.00000000D+00 0.00000000D+00 0.74886514D-01
-0.33178819D+00 0.00000000D+00 0.55354648D+00 0.52676530D+00 0.12945405D+01
 0.66244302D+00 0.14867147D+01 0.00000000D+00 0.00000000D+00 0.31290727D+00
-0.95710667D-01-0.14380968D+00-0.48141675D+00 0.18151248D+01 0.00000000D+00
 0.00000000D+00 0.19853612D+00 0.00000000D+00 0.00000000D+00-0.28117218D+00
 0.00000000D+00 0.00000000D+00-0.14850403D+00-0.49187509D-01-0.37558217D-01
-0.46075932D-01 0.00000000D+00 0.00000000D+00 0.00000000D+00-0.75037785D+00
-0.43757145D+00-0.49018305D+00 0.00000000D+00 0.00000000D+00 0.00000000D+00
 0.00000000D+00 0.00000000D+00 0.45534242D-01 0.00000000D+00 0.00000000D+00
 0.30904139D-01 0.00000000D+00 0.00000000D+00-0.42636568D-01 0.00000000D+00
 0.96480461D+01 0.00000000D+00 0.00000000D+00-0.16045540D+01-0.24552034D+01
-0.40016222D+01-0.22559566D+01 0.00000000D+00 0.00000000D+00 0.00000000D+00
 0.00000000D+00 0.00000000D+00-0.12093946D+00 0.00000000D+00 0.00000000D+00
-0.32858910D-01 0.00000000D+00 0.00000000D+00 0.67035384D-01 0.00000000D+00
 0.77789500D-01 0.21817518D+01-0.57255467D+01 0.00000000D+00-0.30081692D-01
-0.39621083D-01 0.00000000D+00-0.71339652D+00-0.22252224D+00 0.60787739D-01
-0.35335876D-01 0.41513402D-03 0.00000000D+00 0.00000000D+00-0.74886514D-01
-0.33178819D+00 0.00000000D+00-0.55354648D+00 0.52676530D+00 0.12945405D+01
 0.66244302D+00 0.14867147D+01 0.00000000D+00 0.00000000D+00-0.31290727D+00
   28 Alpha MO OE= 0.79331374D+00
 0.00000000D+00 0.00000000D+00 0.00000000D+00 0.36290072D-01 0.00000000D+00
 0.00000000D+00-0.49671604D+00 0.00000000D+00 0.00000000D+00 0.00000000D+00
 0.00000000D+00 0.00000000D+00 0.23450371D-02-0.84984315D-03 0.00000000D+00
 0.00000000D+00-0.15665868D+01 0.00000000D+00 0.00000000D+00 0.00000000D+00
 0.00000000D+00 0.00000000D+00 0.52161204D+00-0.45982803D+00 0.00000000D+00
 0.00000000D+00 0.00000000D+00 0.00000000D+00 0.00000000D+00-0.27919467D+00
 0.00000000D+00 0.00000000D+00-0.42866877D+00 0.00000000D+00 0.00000000D+00
 0.50750103D+01 0.00000000D+00 0.00000000D+00 0.00000000D+00 0.00000000D+00
 0.00000000D+00 0.00000000D+00-0.39181424D-02 0.00000000D+00 0.00000000D+00
 0.00000000D+00 0.00000000D+00 0.00000000D+00-0.50399383D-01 0.00000000D+00
-0.10901803D+00 0.00000000D+00 0.00000000D+00-0.77975892D-01 0.00000000D+00
 0.00000000D+00-0.64004986D-01 0.00000000D+00 0.00000000D+00 0.00000000D+00
 0.00000000D+00 0.79190493D+00 0.00000000D+00 0.00000000D+00 0.00000000D+00
 0.00000000D+00 0.00000000D+00 0.00000000D+00-0.11549257D+01 0.00000000D+00
-0.10065026D+01 0.00000000D+00 0.00000000D+00-0.25187572D+00 0.00000000D+00
 0.00000000D+00-0.33380488D+00 0.00000000D+00 0.00000000D+00 0.00000000D+00
 0.00000000D+00 0.00000000D+00 0.00000000D+00 0.36290072D-01 0.00000000D+00
 0.00000000D+00-0.49671604D+00 0.00000000D+00 0.00000000D+00 0.00000000D+00
 0.00000000D+00 0.00000000D+00-0.23450371D-02-0.84984315D-03 0.00000000D+00
 0.00000000D+00-0.15665868D+01 0.00000000D+00 0.00000000D+00 0.00000000D+00
 0.00000000D+00 0.00000000D+00-0.52161204D+00-0.45982803D+00 0.00000000D+00
   29 Alpha MO OE= 0.86116778D+00
 0.00000000D+00 0.00000000D+00 0.00000000D+00-0.20531128D-01 0.00000000D+00
 0.00000000D+00 0.38078960D+00 0.00000000D+00 0.00000000D+00 0.00000000D+00
 0.00000000D+00 0.00000000D+00 0.81494622D-02 0.18090641D-01 0.00000000D+00
 0.00000000D+00 0.58025401D+00 0.00000000D+00 0.00000000D+00 0.00000000D+00
 0.00000000D+00 0.00000000D+00-0.98867405D+00-0.21231430D+00 0.00000000D+00
 0.00000000D+00 0.00000000D+00 0.00000000D+00 0.00000000D+00-0.47148379D-01
 0.00000000D+00 0.00000000D+00-0.14285099D+00 0.00000000D+00 0.00000000D+00
-0.91398058D+00 0.00000000D+00 0.00000000D+00 0.00000000D+00 0.00000000D+00
 0.00000000D+00 0.00000000D+00-0.60462147D-02 0.00000000D+00 0.00000000D+00
 0.00000000D+00 0.00000000D+00 0.00000000D+00 0.70244106D-01 0.00000000D+00
-0.51025849D-01 0.00000000D+00 0.00000000D+00-0.39239423D-01 0.00000000D+00
 0.00000000D+00 0.17008835D-01 0.00000000D+00 0.00000000D+00 0.00000000D+00
 0.00000000D+00-0.50646907D+00 0.00000000D+00 0.00000000D+00 0.00000000D+00
 0.00000000D+00 0.00000000D+00 0.00000000D+00 0.12343891D+01 0.00000000D+00
-0.25853278D+00 0.00000000D+00 0.00000000D+00-0.10400396D+00 0.00000000D+00
 0.00000000D+00-0.35727880D+00 0.00000000D+00 0.00000000D+00 0.00000000D+00
 0.00000000D+00 0.00000000D+00 0.00000000D+00-0.20531128D-01 0.00000000D+00
 0.00000000D+00 0.38078960D+00 0.00000000D+00 0.00000000D+00 0.00000000D+00
 0.00000000D+00 0.00000000D+00-0.81494622D-02 0.18090641D-01 0.00000000D+00
 0.00000000D+00 0.58025401D+00 0.00000000D+00 0.00000000D+00 0.00000000D+00
 0.00000000D+00 0.00000000D+00 0.98867405D+00-0.21231430D+00 0.00000000D+00
   30 Alpha MO OE= 0.92255822D+00
 0.00000000D+00 0.00000000D+00 0.00000000D+00 0.14773296D-02 0.00000000D+00
 0.00000000D+00 0.41388882D-01 0.00000000D+00 0.00000000D+00 0.00000000D+00
 0.00000000D+00 0.00000000D+00-0.20201203D-02-0.30801437D-01 0.00000000D+00
 0.00000000D+00 0.52473604D+00 0.00000000D+00 0.00000000D+00 0.00000000D+00
 0.00000000D+00 0.00000000D+00-0.43814793D+00 0.94083285D+00 0.00000000D+00
 0.00000000D+00 0.00000000D+00 0.00000000D+00 0.00000000D+00 0.00000000D+00
 0.00000000D+00 0.00000000D+00 0.00000000D+00 0.00000000D+00 0.00000000D+00
 0.00000000D+00 0.00000000D+00 0.00000000D+00 0.00000000D+00 0.00000000D+00
 0.00000000D+00 0.28569051D-01 0.00000000D+00 0.00000000D+00 0.00000000D+00
 0.00000000D+00 0.00000000D+00-0.13955537D+00 0.00000000D+00 0.00000000D+00
 0.00000000D+00 0.00000000D+00 0.00000000D+00 0.00000000D+00 0.00000000D+00
 0.00000000D+00 0.00000000D+00 0.00000000D+00 0.00000000D+00 0.31090931D-03
 0.00000000D+00 0.00000000D+00 0.00000000D+00 0.00000000D+00 0.00000000D+00
 0.00000000D+00 0.00000000D+00-0.13027171D+00 0.00000000D+00 0.00000000D+00
 0.00000000D+00 0.00000000D+00 0.00000000D+00 0.00000000D+00 0.00000000D+00
 0.00000000D+00 0.00000000D+00 0.00000000D+00 0.00000000D+00 0.31554481D-02
 0.00000000D+00 0.00000000D+00 0.00000000D+00-0.14773296D-02 0.00000000D+00
 0.00000000D+00-0.41388882D-01 0.00000000D+00 0.00000000D+00 0.00000000D+00
 0.00000000D+00 0.00000000D+00-0.20201203D-02 0.30801437D-01 0.00000000D+00
 0.00000000D+00-0.52473604D+00 0.00000000D+00 0.00000000D+00 0.00000000D+00
 0.00000000D+00 0.00000000D+00-0.43814793D+00-0.94083285D+00 0.00000000D+00
   31 Alpha MO OE= 0.92704944D+00
 0.61538006D-01-0.18029316D+01-0.24666818D+01 0.00000000D+00 0.37793428D-01
 0.24516243D-01 0.00000000D+00-0.12875430D+00-0.89882863D+00 0.48865677D-01
 0.20378548D-01 0.72603494D-02 0.00000000D+00 0.00000000D+00 0.59017325D-02
-0.81339854D+00 0.00000000D+00-0.21054595D+01-0.25692576D+01-0.17270740D-01
 0.18021155D+01-0.97212823D+00 0.00000000D+00 0.00000000D+00 0.63837129D+00
 0.00000000D+00 0.00000000D+00 0.00000000D+00 0.00000000D+00 0.00000000D+00
-0.75519054D-01 0.00000000D+00 0.00000000D+00 0.10914224D+00 0.00000000D+00
 0.00000000D+00 0.53772844D+01 0.00000000D+00 0.00000000D+00 0.00000000D+00
 0.00000000D+00 0.00000000D+00 0.00000000D+00 0.61819071D-02 0.00000000D+00
 0.00000000D+00 0.00000000D+00 0.00000000D+00 0.00000000D+00-0.72437542D-01
 0.00000000D+00-0.17438740D-01 0.00000000D+00 0.00000000D+00 0.81463729D-02
 0.00000000D+00 0.00000000D+00 0.21806588D-01 0.00000000D+00 0.00000000D+00
 0.00000000D+00 0.00000000D+00 0.31383710D+01 0.00000000D+00 0.00000000D+00
 0.00000000D+00 0.00000000D+00 0.00000000D+00 0.00000000D+00-0.76079592D+00
 0.00000000D+00 0.42251138D+00 0.00000000D+00 0.00000000D+00-0.46022394D-01
 0.00000000D+00 0.00000000D+00-0.14081053D+00 0.00000000D+00 0.00000000D+00
-0.61538006D-01 0.18029316D+01 0.24666818D+01 0.00000000D+00 0.37793428D-01
-0.24516243D-01 0.00000000D+00-0.12875430D+00 0.89882863D+00-0.48865677D-01
-0.20378548D-01-0.72603494D-02 0.00000000D+00 0.00000000D+00 0.59017325D-02
 0.81339854D+00 0.00000000D+00-0.21054595D+01 0.25692576D+01 0.17270740D-01
-0.18021155D+01 0.97212823D+00 0.00000000D+00 0.00000000D+00 0.63837129D+00
   32 Alpha MO OE= 0.93670517D+00
 0.39530192D-01-0.38510681D+01 0.25433094D+01 0.00000000D+00 0.63163011D-02
-0.13543376D-01 0.00000000D+00 0.83896901D+00-0.17669116D+00 0.21902960D-02
-0.35831774D-01 0.38246354D-01 0.00000000D+00 0.00000000D+00 0.34923903D-01
 0.33369058D-01 0.00000000D+00-0.48575405D+00 0.29003345D+00 0.28541876D+00
-0.53655654D+00-0.12090178D+01 0.00000000D+00 0.00000000D+00-0.44677246D+00
-0.14572449D-01-0.44979264D-01-0.81747210D-01 0.45270756D+01 0.00000000D+00
 0.00000000D+00 0.13254810D-04 0.00000000D+00 0.00000000D+00-0.23381459D+00
 0.00000000D+00 0.00000000D+00-0.21765405D+01-0.13466782D-01-0.83172612D-02
 0.57645393D-02 0.00000000D+00 0.00000000D+00 0.00000000D+00-0.12950576D+00
 0.27331458D-01-0.51819520D-01 0.00000000D+00 0.00000000D+00 0.00000000D+00
 0.00000000D+00 0.00000000D+00 0.14489106D-01 0.00000000D+00 0.00000000D+00
-0.33061275D-01 0.00000000D+00 0.00000000D+00-0.28391589D-01 0.00000000D+00
-0.22498496D+01 0.00000000D+00 0.00000000D+00 0.30638295D+00-0.20704132D+01
 0.91574469D+00 0.15356598D+01 0.00000000D+00 0.00000000D+00 0.00000000D+00
 0.00000000D+00 0.00000000D+00-0.35752778D+00 0.00000000D+00 0.00000000D+00
 0.13016079D+00 0.00000000D+00 0.00000000D+00-0.90922459D-01 0.00000000D+00
 0.39530192D-01-0.38510681D+01 0.25433094D+01 0.00000000D+00-0.63163011D-02
-0.13543376D-01 0.00000000D+00-0.83896901D+00-0.17669116D+00 0.21902960D-02
-0.35831774D-01 0.38246354D-01 0.00000000D+00 0.00000000D+00-0.34923903D-01
 0.33369058D-01 0.00000000D+00 0.48575405D+00 0.29003345D+00 0.28541876D+00
-0.53655654D+00-0.12090178D+01 0.00000000D+00 0.00000000D+00 0.44677246D+00
   33 Alpha MO OE= 0.10024946D+01
 0.00000000D+00 0.00000000D+00 0.00000000D+00 0.13305926D-01 0.00000000D+00
 0.00000000D+00 0.87428005D-01 0.00000000D+00 0.00000000D+00 0.00000000D+00
 0.00000000D+00 0.00000000D+00 0.26515213D-02-0.10462156D-01 0.00000000D+00
 0.00000000D+00 0.60532264D+00 0.00000000D+00 0.00000000D+00 0.00000000D+00
 0.00000000D+00 0.00000000D+00-0.58328328D+00 0.10498509D+01 0.00000000D+00
 0.00000000D+00 0.00000000D+00 0.00000000D+00 0.00000000D+00-0.61071675D-01
 0.00000000D+00 0.00000000D+00-0.26218814D+00 0.00000000D+00 0.00000000D+00
-0.89524179D+00 0.00000000D+00 0.00000000D+00 0.00000000D+00 0.00000000D+00
 0.00000000D+00 0.00000000D+00-0.33303599D-01 0.00000000D+00 0.00000000D+00
 0.00000000D+00 0.00000000D+00 0.00000000D+00 0.17184865D+00 0.00000000D+00
-0.48888529D-01 0.00000000D+00 0.00000000D+00 0.14327180D-02 0.00000000D+00
 0.00000000D+00-0.33720965D-01 0.00000000D+00 0.00000000D+00 0.00000000D+00
 0.00000000D+00-0.40597003D+00 0.00000000D+00 0.00000000D+00 0.00000000D+00
 0.00000000D+00 0.00000000D+00 0.00000000D+00-0.78222939D+00 0.00000000D+00
-0.46029533D+00 0.00000000D+00 0.00000000D+00-0.37562137D+00 0.00000000D+00
 0.00000000D+00-0.16275523D+00 0.00000000D+00 0.00000000D+00 0.00000000D+00
 0.00000000D+00 0.00000000D+00 0.00000000D+00 0.13305926D-01 0.00000000D+00
 0.00000000D+00 0.87428005D-01 0.00000000D+00 0.00000000D+00 0.00000000D+00
 0.00000000D+00 0.00000000D+00-0.26515213D-02-0.10462156D-01 0.00000000D+00
 0.00000000D+00 0.60532264D+00 0.00000000D+00 0.00000000D+00 0.00000000D+00
 0.00000000D+00 0.00000000D+00 0.58328328D+00 0.10498509D+01 0.00000000D+00
   34 Alpha MO OE= 0.10037429D+01
 0.65786894D-01-0.17558370D+01-0.76609196D+01 0.00000000D+00-0.16956367D-02
 0.18073864D-02 0.00000000D+00 0.12803421D+01-0.84635608D+00-0.78837887D-03
-0.30677254D-01-0.14751189D-01 0.00000000D+00 0.00000000D+00 0.35005725D-01
-0.42414866D+00 0.00000000D+00 0.25284736D+01-0.20083545D+01 0.69492467D+00
-0.74373954D+00-0.35551837D-01 0.00000000D+00 0.00000000D+00 0.93660250D+00
 0.98387462D-01 0.32520799D-01 0.12164023D+00 0.10362469D+02 0.00000000D+00
 0.00000000D+00 0.20807350D+00 0.00000000D+00 0.00000000D+00-0.35617955D+00
 0.00000000D+00 0.00000000D+00-0.24450005D+01 0.19990558D-01-0.53198533D-02
-0.16119678D-01 0.00000000D+00 0.00000000D+00 0.00000000D+00-0.18542670D-01
 0.44811784D+00 0.30123178D+00 0.00000000D+00 0.00000000D+00 0.00000000D+00
 0.00000000D+00 0.00000000D+00 0.58260866D-01 0.00000000D+00 0.00000000D+00
 0.21090496D-01 0.00000000D+00 0.00000000D+00 0.11340354D-01 0.00000000D+00
 0.91030117D+01 0.00000000D+00 0.00000000D+00-0.62948213D+00 0.79186063D+00
 0.73446017D+00 0.70479444D+00 0.00000000D+00 0.00000000D+00 0.00000000D+00
 0.00000000D+00 0.00000000D+00-0.18919026D+00 0.00000000D+00 0.00000000D+00
-0.33472039D-01 0.00000000D+00 0.00000000D+00-0.13915096D+00 0.00000000D+00
 0.65786894D-01-0.17558370D+01-0.76609196D+01 0.00000000D+00 0.16956367D-02
 0.18073864D-02 0.00000000D+00-0.12803421D+01-0.84635608D+00-0.78837887D-03
-0.30677254D-01-0.14751189D-01 0.00000000D+00 0.00000000D+00-0.35005725D-01
-0.42414866D+00 0.00000000D+00-0.25284736D+01-0.20083545D+01 0.69492467D+00
-0.74373954D+00-0.35551837D-01 0.00000000D+00 0.00000000D+00-0.93660250D+00
   35 Alpha MO OE= 0.10405209D+01
-0.61673604D-01-0.10751796D+01 0.52137385D+01 0.00000000D+00 0.18058501D-01
 0.36219360D-02 0.00000000D+00-0.85242607D+00 0.72147249D+00 0.21160649D-01
 0.77536396D-01 0.71741197D-01 0.00000000D+00 0.00000000D+00-0.53653033D-01
 0.77121905D+00 0.00000000D+00-0.26033293D+01 0.15478417D+01-0.32536924D+00
 0.11251783D+01 0.36337250D+00 0.00000000D+00 0.00000000D+00-0.11518384D+01
 0.00000000D+00 0.00000000D+00 0.00000000D+00 0.00000000D+00 0.00000000D+00
 0.27961941D+00 0.00000000D+00 0.00000000D+00-0.29638694D+00 0.00000000D+00
 0.00000000D+00 0.49730982D+00 0.00000000D+00 0.00000000D+00 0.00000000D+00
 0.00000000D+00 0.00000000D+00 0.00000000D+00 0.11677869D-01 0.00000000D+00
 0.00000000D+00 0.00000000D+00 0.00000000D+00 0.00000000D+00 0.24862506D+00
 0.00000000D+00 0.56201624D-01 0.00000000D+00 0.00000000D+00 0.52081101D-01
 0.00000000D+00 0.00000000D+00-0.14634675D-02 0.00000000D+00 0.00000000D+00
 0.00000000D+00 0.00000000D+00-0.43723916D+00 0.00000000D+00 0.00000000D+00
 0.00000000D+00 0.00000000D+00 0.00000000D+00 0.00000000D+00-0.17517553D+01
 0.00000000D+00 0.77876703D-02 0.00000000D+00 0.00000000D+00-0.11371230D+00
 0.00000000D+00 0.00000000D+00 0.15212871D+00 0.00000000D+00 0.00000000D+00
 0.61673604D-01 0.10751796D+01-0.52137385D+01 0.00000000D+00 0.18058501D-01
-0.36219360D-02 0.00000000D+00-0.85242607D+00-0.72147249D+00-0.21160649D-01
-0.77536396D-01-0.71741197D-01 0.00000000D+00 0.00000000D+00-0.53653033D-01
-0.77121905D+00 0.00000000D+00-0.26033293D+01-0.15478417D+01 0.32536924D+00
-0.11251783D+01-0.36337250D+00 0.00000000D+00 0.00000000D+00-0.11518384D+01
   36 Alpha MO OE= 0.10782142D+01
-0.23445605D-02-0.30136681D+01 0.78501164D+01 0.00000000D+00 0.16382893D-01
 0.41605243D-02 0.00000000D+00 0.54427122D+00-0.36686219D-01 0.26881198D-01
-0.36326225D-01-0.80196283D-02 0.00000000D+00 0.00000000D+00-0.18226235D-01
 0.35293488D+00 0.00000000D+00-0.23031144D+01 0.66051640D+00-0.14886051D+01
-0.36334407D+00 0.38105647D+00 0.00000000D+00 0.00000000D+00 0.81398751D+00
 0.00000000D+00 0.00000000D+00 0.00000000D+00 0.00000000D+00 0.00000000D+00
 0.69190171D-01 0.00000000D+00 0.00000000D+00 0.48978355D+00 0.00000000D+00
 0.00000000D+00-0.81768483D+00 0.00000000D+00 0.00000000D+00 0.00000000D+00
 0.00000000D+00 0.00000000D+00 0.00000000D+00 0.44255941D-02 0.00000000D+00
 0.00000000D+00 0.00000000D+00 0.00000000D+00 0.00000000D+00-0.14228719D+00
 0.00000000D+00 0.73499013D-01 0.00000000D+00 0.00000000D+00-0.93804108D-02
 0.00000000D+00 0.00000000D+00 0.26209951D-02 0.00000000D+00 0.00000000D+00
 0.00000000D+00 0.00000000D+00-0.72574830D+00 0.00000000D+00 0.00000000D+00
 0.00000000D+00 0.00000000D+00 0.00000000D+00 0.00000000D+00-0.20190210D+01
 0.00000000D+00 0.41604261D+00 0.00000000D+00 0.00000000D+00 0.39208757D+00
 0.00000000D+00 0.00000000D+00 0.52379949D+00 0.00000000D+00 0.00000000D+00
 0.23445605D-02 0.30136681D+01-0.78501164D+01 0.00000000D+00 0.16382893D-01
-0.41605243D-02 0.00000000D+00 0.54427122D+00 0.36686219D-01-0.26881198D-01
 0.36326225D-01 0.80196283D-02 0.00000000D+00 0.00000000D+00-0.18226235D-01
-0.35293488D+00 0.00000000D+00-0.23031144D+01-0.66051640D+00 0.14886051D+01
 0.36334407D+00-0.38105647D+00 0.00000000D+00 0.00000000D+00 0.81398751D+00
   37 Alpha MO OE= 0.11096325D+01
 0.12484931D-01 0.64423622D+01-0.30888234D+01 0.00000000D+00 0.10936895D-02
 0.83691151D-02 0.00000000D+00-0.15564532D+00-0.13715340D+00 0.33493480D-01
 0.42975258D-02 0.29394062D-01 0.00000000D+00 0.00000000D+00-0.10028406D-01
-0.23178028D-01 0.00000000D+00 0.11310601D+00-0.65024185D+00 0.19140839D+01
 0.17930253D+01 0.81804163D+00 0.00000000D+00 0.00000000D+00 0.15175685D+01
-0.34975410D-03 0.36566934D-01 0.29107788D-01-0.45584800D+01 0.00000000D+00
 0.00000000D+00-0.38713994D-01 0.00000000D+00 0.00000000D+00-0.59743966D+00
 0.00000000D+00 0.00000000D+00 0.89564676D+01 0.42577698D-02-0.30216374D-01
 0.27893092D-01 0.00000000D+00 0.00000000D+00 0.00000000D+00 0.18680028D-01
 0.14375972D+00-0.76981815D-01 0.00000000D+00 0.00000000D+00 0.00000000D+00
 0.00000000D+00 0.00000000D+00-0.32210657D-01 0.00000000D+00 0.00000000D+00
 0.10980045D-01 0.00000000D+00 0.00000000D+00-0.43007745D-01 0.00000000D+00
 0.28295000D+01 0.00000000D+00 0.00000000D+00-0.15585604D+00-0.46819084D+00
-0.49174586D+01-0.33052448D+01 0.00000000D+00 0.00000000D+00 0.00000000D+00
 0.00000000D+00 0.00000000D+00-0.81629024D+00 0.00000000D+00 0.00000000D+00
-0.51871237D+00 0.00000000D+00 0.00000000D+00-0.74658986D-01 0.00000000D+00
 0.12484931D-01 0.64423622D+01-0.30888234D+01 0.00000000D+00-0.10936895D-02
 0.83691151D-02 0.00000000D+00 0.15564532D+00-0.13715340D+00 0.33493480D-01
 0.42975258D-02 0.29394062D-01 0.00000000D+00 0.00000000D+00 0.10028406D-01
-0.23178028D-01 0.00000000D+00-0.11310601D+00-0.65024185D+00 0.19140839D+01
 0.17930253D+01 0.81804163D+00 0.00000000D+00 0.00000000D+00-0.15175685D+01
   38 Alpha MO OE= 0.11580756D+01
-0.46207518D-01-0.34750042D+01 0.16118844D+02 0.00000000D+00-0.44231601D-01
 0.44167328D-01 0.00000000D+00-0.10133542D+01 0.43424974D+00-0.13134709D+00
-0.69229659D-01-0.11548266D+00 0.00000000D+00 0.00000000D+00-0.47516735D-01
 0.86225465D+00 0.00000000D+00-0.32555762D+01 0.16168518D+01-0.35079265D+01
-0.16281919D+01-0.26971252D+01 0.00000000D+00 0.00000000D+00-0.12637340D+01
 0.00000000D+00 0.00000000D+00 0.00000000D+00 0.00000000D+00 0.00000000D+00
-0.25791055D-01 0.00000000D+00 0.00000000D+00-0.14114209D+01 0.00000000D+00
 0.00000000D+00 0.55545689D+01 0.00000000D+00 0.00000000D+00 0.00000000D+00
 0.00000000D+00 0.00000000D+00 0.00000000D+00-0.48657761D-01 0.00000000D+00
 0.00000000D+00 0.00000000D+00 0.00000000D+00 0.00000000D+00 0.41095555D+00
 0.00000000D+00-0.66651877D-01 0.00000000D+00 0.00000000D+00-0.58785234D-02
 0.00000000D+00 0.00000000D+00-0.40781418D-01 0.00000000D+00 0.00000000D+00
 0.00000000D+00 0.00000000D+00-0.27882217D+01 0.00000000D+00 0.00000000D+00
 0.00000000D+00 0.00000000D+00 0.00000000D+00 0.00000000D+00-0.16095614D+01
 0.00000000D+00-0.13981225D+01 0.00000000D+00 0.00000000D+00-0.65644258D+00
 0.00000000D+00 0.00000000D+00-0.71650605D+00 0.00000000D+00 0.00000000D+00
 0.46207518D-01 0.34750042D+01-0.16118844D+02 0.00000000D+00-0.44231601D-01
-0.44167328D-01 0.00000000D+00-0.10133542D+01-0.43424974D+00 0.13134709D+00
 0.69229659D-01 0.11548266D+00 0.00000000D+00 0.00000000D+00-0.47516735D-01
-0.86225465D+00 0.00000000D+00-0.32555762D+01-0.16168518D+01 0.35079265D+01
 0.16281919D+01 0.26971252D+01 0.00000000D+00 0.00000000D+00-0.12637340D+01
   39 Alpha MO OE= 0.11764512D+01
 0.00000000D+00 0.00000000D+00 0.00000000D+00 0.15112171D-01 0.00000000D+00
 0.00000000D+00-0.11743329D+00 0.00000000D+00 0.00000000D+00 0.00000000D+00
 0.00000000D+00 0.00000000D+00 0.40923105D-01 0.37877888D-01 0.00000000D+00
 0.00000000D+00 0.36259990D+00 0.00000000D+00 0.00000000D+00 0.00000000D+00
 0.00000000D+00 0.00000000D+00-0.13413603D+01-0.69406260D+00 0.00000000D+00
 0.00000000D+00 0.00000000D+00 0.00000000D+00 0.00000000D+00 0.00000000D+00
 0.00000000D+00 0.00000000D+00 0.00000000D+00 0.00000000D+00 0.00000000D+00
 0.00000000D+00 0.00000000D+00 0.00000000D+00 0.00000000D+00 0.00000000D+00
 0.00000000D+00 0.23367940D-01 0.00000000D+00 0.00000000D+00 0.00000000D+00
 0.00000000D+00 0.00000000D+00-0.97830237D-01 0.00000000D+00 0.00000000D+00
 0.00000000D+00 0.00000000D+00 0.00000000D+00 0.00000000D+00 0.00000000D+00
 0.00000000D+00 0.00000000D+00 0.00000000D+00 0.00000000D+00-0.81945058D-02
 0.00000000D+00 0.00000000D+00 0.00000000D+00 0.00000000D+00 0.00000000D+00
 0.00000000D+00 0.00000000D+00 0.13854206D+01 0.00000000D+00 0.00000000D+00
 0.00000000D+00 0.00000000D+00 0.00000000D+00 0.00000000D+00 0.00000000D+00
[...]
 0.00000000D+00-0.81833335D-02 0.00000000D+00 0.00000000D+00 0.00000000D+00
 0.00000000D+00 0.00000000D+00-0.44067665D+00-0.36319926D+00 0.00000000D+00
 0.00000000D+00 0.19249860D+00 0.00000000D+00 0.00000000D+00 0.00000000D+00
 0.00000000D+00 0.00000000D+00 0.49871637D-01 0.36610994D-01 0.00000000D+00
   94 Alpha MO OE= 0.73599575D+01
 0.00000000D+00 0.00000000D+00 0.00000000D+00-0.38901454D-01 0.00000000D+00
 0.00000000D+00 0.93700978D+00 0.00000000D+00 0.00000000D+00 0.00000000D+00
 0.00000000D+00 0.00000000D+00 0.54278944D-02 0.52051524D-01 0.00000000D+00
 0.00000000D+00 0.23849039D+00 0.00000000D+00 0.00000000D+00 0.00000000D+00
 0.00000000D+00 0.00000000D+00-0.39269232D+00 0.23987869D+00 0.00000000D+00
 0.00000000D+00 0.00000000D+00 0.00000000D+00 0.00000000D+00 0.00000000D+00
 0.00000000D+00 0.00000000D+00 0.00000000D+00 0.00000000D+00 0.00000000D+00
 0.00000000D+00 0.00000000D+00 0.00000000D+00 0.00000000D+00 0.00000000D+00
 0.00000000D+00 0.12231918D+01 0.00000000D+00 0.00000000D+00 0.00000000D+00
 0.00000000D+00 0.00000000D+00-0.12138439D+01 0.00000000D+00 0.00000000D+00
 0.00000000D+00 0.00000000D+00 0.00000000D+00 0.00000000D+00 0.00000000D+00
 0.00000000D+00 0.00000000D+00 0.00000000D+00 0.00000000D+00-0.33475107D+00
 0.00000000D+00 0.00000000D+00 0.00000000D+00 0.00000000D+00 0.00000000D+00
 0.00000000D+00 0.00000000D+00-0.33284375D+00 0.00000000D+00 0.00000000D+00
 0.00000000D+00 0.00000000D+00 0.00000000D+00 0.00000000D+00 0.00000000D+00
 0.00000000D+00 0.00000000D+00 0.00000000D+00 0.00000000D+00 0.54601705D+00
 0.00000000D+00 0.00000000D+00 0.00000000D+00 0.38901454D-01 0.00000000D+00
 0.00000000D+00-0.93700978D+00 0.00000000D+00 0.00000000D+00 0.00000000D+00
 0.00000000D+00 0.00000000D+00 0.54278944D-02-0.52051524D-01 0.00000000D+00
 0.00000000D+00-0.23849039D+00 0.00000000D+00 0.00000000D+00 0.00000000D+00
 0.00000000D+00 0.00000000D+00-0.39269232D+00-0.23987869D+00 0.00000000D+00
   95 Alpha MO OE= 0.74704395D+01
-0.66989890D+00 0.90378901D-01 0.26227925D+01 0.00000000D+00-0.10188416D-01
-0.42393458D+00 0.00000000D+00 0.35808383D+00 0.45671743D+00-0.51885209D+00
-0.17530961D+00-0.94498314D+00 0.00000000D+00 0.00000000D+00 0.13191419D+00
 0.12609837D+00 0.00000000D+00-0.11697422D+00 0.54556196D+00-0.82899653D+00
-0.89502951D+00-0.30543138D+00 0.00000000D+00 0.00000000D+00-0.16978986D+00
 0.00000000D+00 0.00000000D+00 0.00000000D+00 0.00000000D+00 0.00000000D+00
-0.12240847D+00 0.00000000D+00 0.00000000D+00 0.32251182D+00 0.00000000D+00
 0.00000000D+00 0.18888716D+00 0.00000000D+00 0.00000000D+00 0.00000000D+00
 0.00000000D+00 0.00000000D+00 0.00000000D+00 0.10397201D+00 0.00000000D+00
 0.00000000D+00 0.00000000D+00 0.00000000D+00 0.00000000D+00-0.51233546D+00
 0.00000000D+00 0.14671654D+01 0.00000000D+00 0.00000000D+00-0.20579697D+00
 0.00000000D+00 0.00000000D+00-0.12145034D+01 0.00000000D+00 0.00000000D+00
 0.00000000D+00 0.00000000D+00-0.64174617D+00 0.00000000D+00 0.00000000D+00
 0.00000000D+00 0.00000000D+00 0.00000000D+00 0.00000000D+00-0.78532449D+00
 0.00000000D+00-0.50113295D+00 0.00000000D+00 0.00000000D+00-0.42056673D-01
 0.00000000D+00 0.00000000D+00 0.88610385D+00 0.00000000D+00 0.00000000D+00
 0.66989890D+00-0.90378901D-01-0.26227925D+01 0.00000000D+00-0.10188416D-01
 0.42393458D+00 0.00000000D+00 0.35808383D+00-0.45671743D+00 0.51885209D+00
 0.17530961D+00 0.94498314D+00 0.00000000D+00 0.00000000D+00 0.13191419D+00
-0.12609837D+00 0.00000000D+00-0.11697422D+00-0.54556196D+00 0.82899653D+00
 0.89502951D+00 0.30543138D+00 0.00000000D+00 0.00000000D+00-0.16978986D+00
   96 Alpha MO OE= 0.75101159D+01
-0.56536519D-01-0.25941882D+01-0.14883741D+01 0.00000000D+00 0.25641011D+00
 0.47475236D-01 0.00000000D+00 0.20901604D+01 0.41724666D-01 0.11136047D+00
-0.48385734D+00 0.12104671D+00 0.00000000D+00 0.00000000D+00-0.87440483D-01
-0.50780909D-01 0.00000000D+00 0.44730971D+00-0.21519638D-01 0.40037081D+00
-0.26438648D+00 0.68265057D+00 0.00000000D+00 0.00000000D+00 0.16634758D+00
-0.39620086D-02 0.66520951D-01 0.19448485D+00 0.56197593D+01 0.00000000D+00
 0.00000000D+00 0.63178174D-01 0.00000000D+00 0.00000000D+00-0.16184299D+01
 0.00000000D+00 0.00000000D+00-0.97736862D+00 0.71215642D+00 0.58538191D+00
-0.12583001D+01 0.00000000D+00 0.00000000D+00 0.00000000D+00-0.73712469D+00
-0.38586060D+00 0.22877224D+01 0.00000000D+00 0.00000000D+00 0.00000000D+00
 0.00000000D+00 0.00000000D+00-0.65531289D-01 0.00000000D+00 0.00000000D+00
 0.17910653D+00 0.00000000D+00 0.00000000D+00-0.83051666D-01 0.00000000D+00
 0.16588371D+01 0.00000000D+00 0.00000000D+00-0.28125945D+00-0.41273840D+00
-0.11247748D+01 0.91026446D-01 0.00000000D+00 0.00000000D+00 0.00000000D+00
 0.00000000D+00 0.00000000D+00-0.18181133D+01 0.00000000D+00 0.00000000D+00
-0.35240263D+00 0.00000000D+00 0.00000000D+00-0.41199427D+00 0.00000000D+00
-0.56536519D-01-0.25941882D+01-0.14883741D+01 0.00000000D+00-0.25641011D+00
 0.47475236D-01 0.00000000D+00-0.20901604D+01 0.41724666D-01 0.11136047D+00
-0.48385734D+00 0.12104671D+00 0.00000000D+00 0.00000000D+00 0.87440483D-01
-0.50780909D-01 0.00000000D+00-0.44730971D+00-0.21519638D-01 0.40037081D+00
-0.26438648D+00 0.68265057D+00 0.00000000D+00 0.00000000D+00-0.16634758D+00
   97 Alpha MO OE= 0.80525146D+01
-0.40982565D+00-0.26887153D+01-0.57113078D+00 0.00000000D+00-0.24629325D+00
-0.27372279D-01 0.00000000D+00 0.71686772D+00-0.10057381D+01-0.20304495D+00
 0.25981211D+00-0.17374847D+00 0.00000000D+00 0.00000000D+00-0.17837105D+00
-0.56147215D-01 0.00000000D+00-0.24607063D-01-0.66120331D-01 0.34896101D+00
 0.25176505D+00 0.17708649D+00 0.00000000D+00 0.00000000D+00 0.16835491D+00
 0.25204063D+00 0.97858083D+00-0.23535360D+01 0.12271152D+02 0.00000000D+00
 0.00000000D+00-0.98714029D-01 0.00000000D+00 0.00000000D+00-0.46978727D+00
 0.00000000D+00 0.00000000D+00 0.63333691D+00 0.54863292D+00-0.15991804D+01
-0.45889278D+00 0.00000000D+00 0.00000000D+00 0.00000000D+00-0.34116937D+01
-0.53709226D+00-0.25285483D+01 0.00000000D+00 0.00000000D+00 0.00000000D+00
 0.00000000D+00 0.00000000D+00 0.14630820D+00 0.00000000D+00 0.00000000D+00
-0.75765355D-01 0.00000000D+00 0.00000000D+00 0.24382070D+00 0.00000000D+00
 0.13914950D+01 0.00000000D+00 0.00000000D+00-0.94256002D-01-0.18900650D+01
-0.12519794D+01-0.18479823D+01 0.00000000D+00 0.00000000D+00 0.00000000D+00
 0.00000000D+00 0.00000000D+00-0.95965948D+00 0.00000000D+00 0.00000000D+00
-0.35914785D+00 0.00000000D+00 0.00000000D+00-0.15327593D+01 0.00000000D+00
-0.40982565D+00-0.26887153D+01-0.57113078D+00 0.00000000D+00 0.24629325D+00
-0.27372279D-01 0.00000000D+00-0.71686772D+00-0.10057381D+01-0.20304495D+00
 0.25981211D+00-0.17374847D+00 0.00000000D+00 0.00000000D+00 0.17837105D+00
-0.56147215D-01 0.00000000D+00 0.24607063D-01-0.66120331D-01 0.34896101D+00
 0.25176505D+00 0.17708649D+00 0.00000000D+00 0.00000000D+00-0.16835491D+00
   98 Alpha MO OE= 0.87295509D+01
 0.12658002D+01-0.53171162D+00-0.24645441D+01 0.00000000D+00-0.15428378D+00
-0.12276521D+00 0.00000000D+00-0.28315103D+00-0.22954515D+00 0.80677208D+00
 0.29004790D+00 0.19443956D+00 0.00000000D+00 0.00000000D+00 0.44566376D+00
-0.88598777D-01 0.00000000D+00 0.41627920D+00-0.37624670D+00 0.20214014D+00
 0.36337809D+00 0.21086548D+00 0.00000000D+00 0.00000000D+00-0.45190973D-01
 0.00000000D+00 0.00000000D+00 0.00000000D+00 0.00000000D+00 0.00000000D+00
-0.10325492D+00 0.00000000D+00 0.00000000D+00 0.26849226D+00 0.00000000D+00
 0.00000000D+00 0.25944665D+01 0.00000000D+00 0.00000000D+00 0.00000000D+00
 0.00000000D+00 0.00000000D+00 0.00000000D+00-0.13895193D+01 0.00000000D+00
 0.00000000D+00 0.00000000D+00 0.00000000D+00 0.00000000D+00 0.21542575D+01
 0.00000000D+00-0.53441053D-01 0.00000000D+00 0.00000000D+00-0.53030138D-01
 0.00000000D+00 0.00000000D+00-0.23256289D+00 0.00000000D+00 0.00000000D+00
 0.00000000D+00 0.00000000D+00 0.38567865D+00 0.00000000D+00 0.00000000D+00
 0.00000000D+00 0.00000000D+00 0.00000000D+00 0.00000000D+00-0.22556720D-01
 0.00000000D+00-0.16654040D+01 0.00000000D+00 0.00000000D+00-0.45948545D+00
 0.00000000D+00 0.00000000D+00-0.16739325D+01 0.00000000D+00 0.00000000D+00
-0.12658002D+01 0.53171162D+00 0.24645441D+01 0.00000000D+00-0.15428378D+00
 0.12276521D+00 0.00000000D+00-0.28315103D+00 0.22954515D+00-0.80677208D+00
-0.29004790D+00-0.19443956D+00 0.00000000D+00 0.00000000D+00 0.44566376D+00
 0.88598777D-01 0.00000000D+00 0.41627920D+00 0.37624670D+00-0.20214014D+00
-0.36337809D+00-0.21086548D+00 0.00000000D+00 0.00000000D+00-0.45190973D-01
   99 Alpha MO OE= 0.89102051D+01
-0.24313781D+01-0.31183682D+01 0.25541771D+01 0.00000000D+00 0.10570932D+01
-0.11253126D+01 0.00000000D+00 0.19359163D+01-0.20753990D+01-0.10615243D+01
-0.11846316D+01-0.15022700D+01 0.00000000D+00 0.00000000D+00 0.43444872D+00
-0.35474774D-02 0.00000000D+00-0.17819353D+00 0.21348859D-01-0.61780260D+00
-0.89896713D+00-0.88447114D+00 0.00000000D+00 0.00000000D+00 0.33448214D+00
-0.33856252D+00-0.18425834D+01 0.24870102D+01 0.40839230D+01 0.00000000D+00
 0.00000000D+00 0.19512575D+00 0.00000000D+00 0.00000000D+00-0.24664129D+01
 0.00000000D+00 0.00000000D+00 0.42890845D+00 0.80553066D+00 0.24430239D+00
 0.70938045D+00 0.00000000D+00 0.00000000D+00 0.00000000D+00 0.11178007D+01
 0.64938931D+01 0.32339098D+01 0.00000000D+00 0.00000000D+00 0.00000000D+00
 0.00000000D+00 0.00000000D+00 0.93963526D-02 0.00000000D+00 0.00000000D+00
 0.27195411D+00 0.00000000D+00 0.00000000D+00-0.15839295D+01 0.00000000D+00
-0.22122567D+01 0.00000000D+00 0.00000000D+00 0.40014961D+00-0.21461563D+00
 0.58883103D+00-0.21780451D+00 0.00000000D+00 0.00000000D+00 0.00000000D+00
 0.00000000D+00 0.00000000D+00-0.14061047D+01 0.00000000D+00 0.00000000D+00
-0.56736619D+00 0.00000000D+00 0.00000000D+00-0.20629262D+01 0.00000000D+00
-0.24313781D+01-0.31183682D+01 0.25541771D+01 0.00000000D+00-0.10570932D+01
-0.11253126D+01 0.00000000D+00-0.19359163D+01-0.20753990D+01-0.10615243D+01
-0.11846316D+01-0.15022700D+01 0.00000000D+00 0.00000000D+00-0.43444872D+00
-0.35474774D-02 0.00000000D+00 0.17819353D+00 0.21348859D-01-0.61780260D+00
-0.89896713D+00-0.88447114D+00 0.00000000D+00 0.00000000D+00-0.33448214D+00
  100 Alpha MO OE= 0.96945334D+01
 0.28085515D+01 0.39018076D+01-0.34887714D+01 0.00000000D+00-0.17724238D+01
 0.11343525D+01 0.00000000D+00-0.32942995D+01 0.19822200D+01 0.11530907D+01
 0.21068969D+01 0.13636624D+01 0.00000000D+00 0.00000000D+00-0.82865947D+00
-0.62073395D-02 0.00000000D+00 0.16146257D+00-0.28141251D+00 0.80824418D+00
 0.14022815D+01 0.10052751D+01 0.00000000D+00 0.00000000D+00-0.34993954D+00
 0.00000000D+00 0.00000000D+00 0.00000000D+00 0.00000000D+00 0.00000000D+00
 0.27718437D+00 0.00000000D+00 0.00000000D+00-0.43708400D+01 0.00000000D+00
 0.00000000D+00 0.42509197D+00 0.00000000D+00 0.00000000D+00 0.00000000D+00
 0.00000000D+00 0.00000000D+00 0.00000000D+00 0.19786893D+00 0.00000000D+00
 0.00000000D+00 0.00000000D+00 0.00000000D+00 0.00000000D+00 0.48752671D+01
 0.00000000D+00-0.12908223D+01 0.00000000D+00 0.00000000D+00 0.39143763D+00
 0.00000000D+00 0.00000000D+00-0.15312518D+01 0.00000000D+00 0.00000000D+00
 0.00000000D+00 0.00000000D+00 0.64273830D+00 0.00000000D+00 0.00000000D+00
 0.00000000D+00 0.00000000D+00 0.00000000D+00 0.00000000D+00 0.44679554D+00
 0.00000000D+00-0.26864887D+01 0.00000000D+00 0.00000000D+00-0.95052599D+00
 0.00000000D+00 0.00000000D+00-0.21323447D+01 0.00000000D+00 0.00000000D+00
-0.28085515D+01-0.39018076D+01 0.34887714D+01 0.00000000D+00-0.17724238D+01
-0.11343525D+01 0.00000000D+00-0.32942995D+01-0.19822200D+01-0.11530907D+01
-0.21068969D+01-0.13636624D+01 0.00000000D+00 0.00000000D+00-0.82865947D+00
 0.62073395D-02 0.00000000D+00 0.16146257D+00 0.28141251D+00-0.80824418D+00
-0.14022815D+01-0.10052751D+01 0.00000000D+00 0.00000000D+00-0.34993954D+00
  101 Alpha MO OE= 0.13545109D+02
 0.00000000D+00 0.00000000D+00 0.00000000D+00-0.10009864D+00 0.00000000D+00
 0.00000000D+00 0.13166548D+00 0.00000000D+00 0.00000000D+00 0.00000000D+00
 0.00000000D+00 0.00000000D+00 0.95494609D-01-0.62552474D-01 0.00000000D+00
 0.00000000D+00-0.16127826D+00 0.00000000D+00 0.00000000D+00 0.00000000D+00
 0.00000000D+00 0.00000000D+00-0.70286275D-01 0.54932542D-01 0.00000000D+00
 0.00000000D+00 0.00000000D+00 0.00000000D+00 0.00000000D+00-0.31779004D+01
 0.00000000D+00 0.00000000D+00 0.16334625D+02 0.00000000D+00 0.00000000D+00
 0.36293924D+01 0.00000000D+00 0.00000000D+00 0.00000000D+00 0.00000000D+00
 0.00000000D+00 0.00000000D+00-0.36703609D-01 0.00000000D+00 0.00000000D+00
 0.00000000D+00 0.00000000D+00 0.00000000D+00-0.98633339D-02 0.00000000D+00
-0.82062461D+01 0.00000000D+00 0.00000000D+00-0.35593310D+01 0.00000000D+00
 0.00000000D+00-0.36058018D+01 0.00000000D+00 0.00000000D+00 0.00000000D+00
 0.00000000D+00-0.22214305D+00 0.00000000D+00 0.00000000D+00 0.00000000D+00
 0.00000000D+00 0.00000000D+00 0.00000000D+00-0.27154366D-01 0.00000000D+00
-0.45598499D+01 0.00000000D+00 0.00000000D+00-0.20507975D+01 0.00000000D+00
 0.00000000D+00-0.20348124D+01 0.00000000D+00 0.00000000D+00 0.00000000D+00
 0.00000000D+00 0.00000000D+00 0.00000000D+00-0.10009864D+00 0.00000000D+00
 0.00000000D+00 0.13166548D+00 0.00000000D+00 0.00000000D+00 0.00000000D+00
 0.00000000D+00 0.00000000D+00-0.95494609D-01-0.62552474D-01 0.00000000D+00
 0.00000000D+00-0.16127826D+00 0.00000000D+00 0.00000000D+00 0.00000000D+00
 0.00000000D+00 0.00000000D+00 0.70286275D-01 0.54932542D-01 0.00000000D+00
  102 Alpha MO OE= 0.14896995D+02
 0.23631254D+00-0.73709824D+00 0.29088248D+01 0.00000000D+00 0.54365319D-01
-0.10034255D+00 0.00000000D+00 0.11992059D+01-0.64757026D+00 0.14334842D+00
-0.12345543D+00-0.10242977D+00 0.00000000D+00 0.00000000D+00 0.33812413D+00
 0.13765393D+00 0.00000000D+00-0.79766614D+00 0.70364328D+00 0.75042383D+00
 0.25354912D+00 0.69273513D+00 0.00000000D+00 0.00000000D+00 0.24914333D+00
 0.26020471D+00 0.87124367D+00-0.16563274D+01 0.59817139D+01 0.00000000D+00
 0.00000000D+00-0.34842662D+01 0.00000000D+00 0.00000000D+00 0.16039631D+02
 0.00000000D+00 0.00000000D+00 0.74383534D+01-0.11030486D+00-0.12515394D-01
-0.12235820D+00 0.00000000D+00 0.00000000D+00 0.00000000D+00-0.18286363D+01
-0.11548189D+01-0.13747065D+01 0.00000000D+00 0.00000000D+00 0.00000000D+00
 0.00000000D+00 0.00000000D+00-0.85843727D+01 0.00000000D+00 0.00000000D+00
-0.38439363D+01 0.00000000D+00 0.00000000D+00-0.40359955D+01 0.00000000D+00
-0.31567830D+01 0.00000000D+00 0.00000000D+00 0.14373967D+00-0.23398876D+01
-0.35528873D+01-0.27809175D+01 0.00000000D+00 0.00000000D+00 0.00000000D+00
 0.00000000D+00 0.00000000D+00-0.64311304D+01 0.00000000D+00 0.00000000D+00
-0.29157272D+01 0.00000000D+00 0.00000000D+00-0.25640269D+01 0.00000000D+00
 0.23631254D+00-0.73709824D+00 0.29088248D+01 0.00000000D+00-0.54365319D-01
-0.10034255D+00 0.00000000D+00-0.11992059D+01-0.64757026D+00 0.14334842D+00
-0.12345543D+00-0.10242977D+00 0.00000000D+00 0.00000000D+00-0.33812413D+00
 0.13765393D+00 0.00000000D+00 0.79766614D+00 0.70364328D+00 0.75042383D+00
 0.25354912D+00 0.69273513D+00 0.00000000D+00 0.00000000D+00-0.24914333D+00
  103 Alpha MO OE= 0.15514673D+02
-0.60504851D+00-0.16308768D+01-0.48793662D+01 0.00000000D+00 0.23052952D+00
-0.15891861D+00 0.00000000D+00 0.23833535D+00 0.36015579D+00-0.23982911D+00
-0.75425241D-01-0.10286676D+00 0.00000000D+00 0.00000000D+00-0.91942299D-01
-0.37933434D+00 0.00000000D+00 0.15582595D+01-0.88412848D+00-0.56159824D+00
-0.65264049D+00-0.26605991D+00 0.00000000D+00 0.00000000D+00-0.16862282D+00
 0.00000000D+00 0.00000000D+00 0.00000000D+00 0.00000000D+00 0.00000000D+00
-0.37302184D+01 0.00000000D+00 0.00000000D+00 0.17655346D+02 0.00000000D+00
 0.00000000D+00 0.98175937D+01 0.00000000D+00 0.00000000D+00 0.00000000D+00
 0.00000000D+00 0.00000000D+00 0.00000000D+00 0.11175815D+00 0.00000000D+00
 0.00000000D+00 0.00000000D+00 0.00000000D+00 0.00000000D+00-0.61793932D+00
 0.00000000D+00-0.88328906D+01 0.00000000D+00 0.00000000D+00-0.40480746D+01
 0.00000000D+00 0.00000000D+00-0.39815228D+01 0.00000000D+00 0.00000000D+00
 0.00000000D+00 0.00000000D+00 0.58411060D+00 0.00000000D+00 0.00000000D+00
 0.00000000D+00 0.00000000D+00 0.00000000D+00 0.00000000D+00-0.14356102D+01
 0.00000000D+00-0.64255402D+01 0.00000000D+00 0.00000000D+00-0.30218014D+01
 0.00000000D+00 0.00000000D+00-0.22544775D+01 0.00000000D+00 0.00000000D+00
 0.60504851D+00 0.16308768D+01 0.48793662D+01 0.00000000D+00 0.23052952D+00
 0.15891861D+00 0.00000000D+00 0.23833535D+00-0.36015579D+00 0.23982911D+00
 0.75425241D-01 0.10286676D+00 0.00000000D+00 0.00000000D+00-0.91942299D-01
 0.37933434D+00 0.00000000D+00 0.15582595D+01 0.88412848D+00 0.56159824D+00
 0.65264049D+00 0.26605991D+00 0.00000000D+00 0.00000000D+00-0.16862282D+00
  104 Alpha MO OE= 0.16946131D+02
-0.76949129D+00-0.56214925D+01-0.21549684D+01 0.00000000D+00 0.10982896D+01
-0.83276670D+00 0.00000000D+00 0.28530819D+01-0.23475309D+01 0.67264169D-01
-0.11473058D+01-0.69298224D+00 0.00000000D+00 0.00000000D+00 0.10778383D+01
-0.11654690D+00 0.00000000D+00 0.96951259D+00-0.91229820D+00-0.33508875D+00
-0.69063387D+00-0.71222945D+00 0.00000000D+00 0.00000000D+00 0.47465819D+00
 0.18673160D+01 0.14549967D+02-0.32689749D+01 0.13386265D+02 0.00000000D+00
 0.00000000D+00 0.67825080D+00 0.00000000D+00 0.00000000D+00-0.53386461D+01
 0.00000000D+00 0.00000000D+00-0.35251521D+01-0.25145375D+01-0.18779766D+01
-0.21179061D+01 0.00000000D+00 0.00000000D+00 0.00000000D+00-0.34897778D+01
-0.67862748D+00-0.19827892D+01 0.00000000D+00 0.00000000D+00 0.00000000D+00
 0.00000000D+00 0.00000000D+00 0.10761433D+01 0.00000000D+00 0.00000000D+00
 0.76146643D+00 0.00000000D+00 0.00000000D+00-0.69073853D+00 0.00000000D+00
 0.21458967D+01 0.00000000D+00 0.00000000D+00-0.49220616D-02 0.71180442D+00
 0.13806533D+01 0.88805761D+00 0.00000000D+00 0.00000000D+00 0.00000000D+00
 0.00000000D+00 0.00000000D+00 0.33167243D+00 0.00000000D+00 0.00000000D+00
 0.97401517D-01 0.00000000D+00 0.00000000D+00 0.27127657D+00 0.00000000D+00
-0.76949129D+00-0.56214925D+01-0.21549684D+01 0.00000000D+00-0.10982896D+01
-0.83276670D+00 0.00000000D+00-0.28530819D+01-0.23475309D+01 0.67264169D-01
-0.11473058D+01-0.69298224D+00 0.00000000D+00 0.00000000D+00-0.10778383D+01
-0.11654690D+00 0.00000000D+00-0.96951259D+00-0.91229820D+00-0.33508875D+00
-0.69063387D+00-0.71222945D+00 0.00000000D+00 0.00000000D+00-0.47465819D+00
  105 Alpha MO OE= 0.17633922D+02
-0.35467604D-01 0.26960786D-01 0.11331342D+01 0.00000000D+00 0.13611391D+00
-0.12147544D+00 0.00000000D+00 0.76430315D-01-0.23132608D-02 0.36689109D-01
-0.74347063D-01-0.46818755D-01 0.00000000D+00 0.00000000D+00 0.10744898D+00
-0.19165460D-01 0.00000000D+00-0.40131489D+00 0.37900319D+00 0.14239222D+00
 0.17848463D+00 0.20422212D+00 0.00000000D+00 0.00000000D+00-0.55504441D-01
-0.37583273D+00 0.87624771D+01-0.11589497D+01 0.10530802D+02 0.00000000D+00
 0.00000000D+00-0.43263355D+00 0.00000000D+00 0.00000000D+00 0.18371726D+01
 0.00000000D+00 0.00000000D+00 0.13620505D+01-0.37204578D+01-0.36542241D+01
-0.36808885D+01 0.00000000D+00 0.00000000D+00 0.00000000D+00-0.51450521D+01
-0.48658598D+01-0.50023741D+01 0.00000000D+00 0.00000000D+00 0.00000000D+00
 0.00000000D+00 0.00000000D+00-0.10619165D+01 0.00000000D+00 0.00000000D+00
-0.45088823D+00 0.00000000D+00 0.00000000D+00-0.61383313D+00 0.00000000D+00
-0.63475886D-02 0.00000000D+00 0.00000000D+00 0.28929096D-01-0.23159634D+01
-0.25535814D+01-0.23423725D+01 0.00000000D+00 0.00000000D+00 0.00000000D+00
 0.00000000D+00 0.00000000D+00-0.90688659D+00 0.00000000D+00 0.00000000D+00
-0.40088859D+00 0.00000000D+00 0.00000000D+00-0.38267023D+00 0.00000000D+00
-0.35467604D-01 0.26960786D-01 0.11331342D+01 0.00000000D+00-0.13611391D+00
-0.12147544D+00 0.00000000D+00-0.76430315D-01-0.23132608D-02 0.36689109D-01
-0.74347063D-01-0.46818755D-01 0.00000000D+00 0.00000000D+00-0.10744898D+00
-0.19165460D-01 0.00000000D+00 0.40131489D+00 0.37900319D+00 0.14239222D+00
 0.17848463D+00 0.20422212D+00 0.00000000D+00 0.00000000D+00 0.55504441D-01
66.5u 3.4s 1:10 99% 0+0k 358+2io 5pf+0w
Sun Jan 29 00:27:54 CST 2006
