 Entering Gaussian System, Link 0=g03
 Initial command:
 /chem/g03/g03/l1.exe /scratch/montuoro/tmp/Gau-366143.inp -scrdir=/scratch/montuoro/tmp/
 Entering Link 1 = /chem/g03/g03/l1.exe PID=    364561.
  
 Copyright (c) 1988,1990,1992,1993,1995,1998,2003,2004, Gaussian, Inc.
                  All Rights Reserved.
  
 This is the Gaussian(R) 03 program.  It is based on the
 the Gaussian(R) 98 system (copyright 1998, Gaussian, Inc.),
 the Gaussian(R) 94 system (copyright 1995, Gaussian, Inc.),
 the Gaussian 92(TM) system (copyright 1992, Gaussian, Inc.),
 the Gaussian 90(TM) system (copyright 1990, Gaussian, Inc.),
 the Gaussian 88(TM) system (copyright 1988, Gaussian, Inc.),
 the Gaussian 86(TM) system (copyright 1986, Carnegie Mellon
 University), and the Gaussian 82(TM) system (copyright 1983,
 Carnegie Mellon University). Gaussian is a federally registered
 trademark of Gaussian, Inc.
  
 This software contains proprietary and confidential information,
 including trade secrets, belonging to Gaussian, Inc.
  
 This software is provided under written license and may be
 used, copied, transmitted, or stored only in accord with that
 written license.
  
 The following legend is applicable only to US Government
 contracts under FAR:
  
                    RESTRICTED RIGHTS LEGEND
  
 Use, reproduction and disclosure by the US Government is
 subject to restrictions as set forth in subparagraphs (a)
 and (c) of the Commercial Computer Software - Restricted
 Rights clause in FAR 52.227-19.
  
 Gaussian, Inc.
 340 Quinnipiac St., Bldg. 40, Wallingford CT 06492
  
  
 ---------------------------------------------------------------
 Warning -- This program may not be used in any manner that
 competes with the business of Gaussian, Inc. or will provide
 assistance to any competitor of Gaussian, Inc.  The licensee
 of this program is prohibited from giving any competitor of
 Gaussian, Inc. access to this program.  By using this program,
 the user acknowledges that Gaussian, Inc. is engaged in the
 business of creating and licensing software in the field of
 computational chemistry and represents and warrants to the
 licensee that it is not a competitor of Gaussian, Inc. and that
 it will not use this program in any manner prohibited above.
 ---------------------------------------------------------------
  

 Cite this work as:
 Gaussian 03, Revision C.02,
 M. J. Frisch, G. W. Trucks, H. B. Schlegel, G. E. Scuseria, 
 M. A. Robb, J. R. Cheeseman, J. A. Montgomery, Jr., T. Vreven, 
 K. N. Kudin, J. C. Burant, J. M. Millam, S. S. Iyengar, J. Tomasi, 
 V. Barone, B. Mennucci, M. Cossi, G. Scalmani, N. Rega, 
 G. A. Petersson, H. Nakatsuji, M. Hada, M. Ehara, K. Toyota, 
 R. Fukuda, J. Hasegawa, M. Ishida, T. Nakajima, Y. Honda, O. Kitao, 
 H. Nakai, M. Klene, X. Li, J. E. Knox, H. P. Hratchian, J. B. Cross, 
 C. Adamo, J. Jaramillo, R. Gomperts, R. E. Stratmann, O. Yazyev, 
 A. J. Austin, R. Cammi, C. Pomelli, J. W. Ochterski, P. Y. Ayala, 
 K. Morokuma, G. A. Voth, P. Salvador, J. J. Dannenberg, 
 V. G. Zakrzewski, S. Dapprich, A. D. Daniels, M. C. Strain, 
 O. Farkas, D. K. Malick, A. D. Rabuck, K. Raghavachari, 
 J. B. Foresman, J. V. Ortiz, Q. Cui, A. G. Baboul, S. Clifford, 
 J. Cioslowski, B. B. Stefanov, G. Liu, A. Liashenko, P. Piskorz, 
 I. Komaromi, R. L. Martin, D. J. Fox, T. Keith, M. A. Al-Laham, 
 C. Y. Peng, A. Nanayakkara, M. Challacombe, P. M. W. Gill, 
 B. Johnson, W. Chen, M. W. Wong, C. Gonzalez, and J. A. Pople, 
 Gaussian, Inc., Wallingford CT, 2004.
 
 ******************************************
 Gaussian 03:  SGI64-G03RevC.02 12-Jun-2004
                20-Oct-2006 
 ******************************************
 -----------------------------------------------------------
 # HF/aug-cc-pVTZ SCF=tight 6D 10F Gfinput PUNCH=MO Units=AU
 -----------------------------------------------------------
 1/20=1,38=1/1;
 2/17=6,18=5,40=1/2;
 3/5=16,6=1,7=10,8=22,11=9,16=1,24=10,25=1,30=1/1,2,3;
 4//1;
 5/5=2,32=2,38=5/2;
 6/7=2,8=2,9=2,10=2,28=1/1;
 99/5=1,9=1,10=32/99;
 --------------------------------------------
 C6H6 experimental geometry (from patmol 0.7)
 --------------------------------------------
 Symbolic Z-matrix:
 Charge =  0 Multiplicity = 1
 H                     0.        0.       -3.1332 
 C                     0.        0.       -1.1376 
 C                     0.        0.        1.1376 
 H                     0.        0.        3.1332 
 
                          Input orientation:                          
 ---------------------------------------------------------------------
 Center     Atomic     Atomic              Coordinates (Angstroms)
 Number     Number      Type              X           Y           Z
 ---------------------------------------------------------------------
    1          1             0        0.000000    0.000000   -1.658018
    2          6             0        0.000000    0.000000   -0.601992
    3          6             0        0.000000    0.000000    0.601992
    4          1             0        0.000000    0.000000    1.658018
 ---------------------------------------------------------------------
                    Distance matrix (angstroms):
                    1          2          3          4
     1  H    0.000000
     2  C    1.056026   0.000000
     3  C    2.260010   1.203984   0.000000
     4  H    3.316036   2.260010   1.056026   0.000000
 Stoichiometry    C2H2
 Framework group  D*H[C*(HC.CH)]
 Deg. of freedom     2
 Full point group                 D*H     NOp   8
 Largest Abelian subgroup         D2H     NOp   8
 Largest concise Abelian subgroup C2      NOp   2
                         Standard orientation:                         
 ---------------------------------------------------------------------
 Center     Atomic     Atomic              Coordinates (Angstroms)
 Number     Number      Type              X           Y           Z
 ---------------------------------------------------------------------
    1          1             0        0.000000    0.000000    1.658018
    2          6             0        0.000000    0.000000    0.601992
    3          6             0        0.000000    0.000000   -0.601992
    4          1             0        0.000000    0.000000   -1.658018
 ---------------------------------------------------------------------
 Rotational constants (GHZ):      0.0000000     35.4937513     35.4937513
 Standard basis: Aug-CC-pVTZ (6D, 10F)
 AO basis set in the form of general basis input:
  1 0
 S   3 1.00       0.000000000000
      0.3387000000D+02  0.2549486323D-01
      0.5095000000D+01  0.1903627659D+00
      0.1159000000D+01  0.8521620222D+00
 S   1 1.00       0.000000000000
      0.3258000000D+00  0.1000000000D+01
 S   1 1.00       0.000000000000
      0.1027000000D+00  0.1000000000D+01
 P   1 1.00       0.000000000000
      0.1407000000D+01  0.1000000000D+01
 P   1 1.00       0.000000000000
      0.3880000000D+00  0.1000000000D+01
 D   1 1.00       0.000000000000
      0.1057000000D+01  0.1000000000D+01
 S   1 1.00       0.000000000000
      0.2526000000D-01  0.1000000000D+01
 P   1 1.00       0.000000000000
      0.1020000000D+00  0.1000000000D+01
 D   1 1.00       0.000000000000
      0.2470000000D+00  0.1000000000D+01
 ****
  2 0
 S   7 1.00       0.000000000000
      0.8236000000D+04  0.5419783203D-03
      0.1235000000D+04  0.4192873817D-02
      0.2808000000D+03  0.2152216205D-01
      0.7927000000D+02  0.8353432195D-01
      0.2559000000D+02  0.2395828457D+00
      0.8997000000D+01  0.4428528419D+00
      0.3319000000D+01  0.3517995618D+00
 S   7 1.00       0.000000000000
      0.8236000000D+04  0.8318202971D-05
      0.1235000000D+04  0.5754289758D-04
      0.2808000000D+03  0.2359672919D-03
      0.2559000000D+02 -0.6715965456D-02
      0.8997000000D+01 -0.5504926385D-01
      0.3319000000D+01 -0.1681798862D+00
      0.3643000000D+00  0.1071293593D+01
 S   1 1.00       0.000000000000
      0.9059000000D+00  0.1000000000D+01
 S   1 1.00       0.000000000000
      0.1285000000D+00  0.1000000000D+01
 P   3 1.00       0.000000000000
      0.1871000000D+02  0.3942638716D-01
      0.4133000000D+01  0.2440889849D+00
      0.1200000000D+01  0.8154920089D+00
 P   1 1.00       0.000000000000
      0.3827000000D+00  0.1000000000D+01
 P   1 1.00       0.000000000000
      0.1209000000D+00  0.1000000000D+01
 D   1 1.00       0.000000000000
      0.1097000000D+01  0.1000000000D+01
 D   1 1.00       0.000000000000
      0.3180000000D+00  0.1000000000D+01
 F   1 1.00       0.000000000000
      0.7610000000D+00  0.1000000000D+01
 S   1 1.00       0.000000000000
      0.4402000000D-01  0.1000000000D+01
 P   1 1.00       0.000000000000
      0.3569000000D-01  0.1000000000D+01
 D   1 1.00       0.000000000000
      0.1000000000D+00  0.1000000000D+01
 F   1 1.00       0.000000000000
      0.2680000000D+00  0.1000000000D+01
 ****
  3 0
 S   7 1.00       0.000000000000
      0.8236000000D+04  0.5419783203D-03
      0.1235000000D+04  0.4192873817D-02
      0.2808000000D+03  0.2152216205D-01
      0.7927000000D+02  0.8353432195D-01
      0.2559000000D+02  0.2395828457D+00
      0.8997000000D+01  0.4428528419D+00
      0.3319000000D+01  0.3517995618D+00
 S   7 1.00       0.000000000000
      0.8236000000D+04  0.8318202971D-05
      0.1235000000D+04  0.5754289758D-04
      0.2808000000D+03  0.2359672919D-03
      0.2559000000D+02 -0.6715965456D-02
      0.8997000000D+01 -0.5504926385D-01
      0.3319000000D+01 -0.1681798862D+00
      0.3643000000D+00  0.1071293593D+01
 S   1 1.00       0.000000000000
      0.9059000000D+00  0.1000000000D+01
 S   1 1.00       0.000000000000
      0.1285000000D+00  0.1000000000D+01
 P   3 1.00       0.000000000000
      0.1871000000D+02  0.3942638716D-01
      0.4133000000D+01  0.2440889849D+00
      0.1200000000D+01  0.8154920089D+00
 P   1 1.00       0.000000000000
      0.3827000000D+00  0.1000000000D+01
 P   1 1.00       0.000000000000
      0.1209000000D+00  0.1000000000D+01
 D   1 1.00       0.000000000000
      0.1097000000D+01  0.1000000000D+01
 D   1 1.00       0.000000000000
      0.3180000000D+00  0.1000000000D+01
 F   1 1.00       0.000000000000
      0.7610000000D+00  0.1000000000D+01
 S   1 1.00       0.000000000000
      0.4402000000D-01  0.1000000000D+01
 P   1 1.00       0.000000000000
      0.3569000000D-01  0.1000000000D+01
 D   1 1.00       0.000000000000
      0.1000000000D+00  0.1000000000D+01
 F   1 1.00       0.000000000000
      0.2680000000D+00  0.1000000000D+01
 ****
  4 0
 S   3 1.00       0.000000000000
      0.3387000000D+02  0.2549486323D-01
      0.5095000000D+01  0.1903627659D+00
      0.1159000000D+01  0.8521620222D+00
 S   1 1.00       0.000000000000
      0.3258000000D+00  0.1000000000D+01
 S   1 1.00       0.000000000000
      0.1027000000D+00  0.1000000000D+01
 P   1 1.00       0.000000000000
      0.1407000000D+01  0.1000000000D+01
 P   1 1.00       0.000000000000
      0.3880000000D+00  0.1000000000D+01
 D   1 1.00       0.000000000000
      0.1057000000D+01  0.1000000000D+01
 S   1 1.00       0.000000000000
      0.2526000000D-01  0.1000000000D+01
 P   1 1.00       0.000000000000
      0.1020000000D+00  0.1000000000D+01
 D   1 1.00       0.000000000000
      0.2470000000D+00  0.1000000000D+01
 ****

 There are    37 symmetry adapted basis functions of AG  symmetry.
 There are     7 symmetry adapted basis functions of B1G symmetry.
 There are    18 symmetry adapted basis functions of B2G symmetry.
 There are    18 symmetry adapted basis functions of B3G symmetry.
 There are     7 symmetry adapted basis functions of AU  symmetry.
 There are    37 symmetry adapted basis functions of B1U symmetry.
 There are    18 symmetry adapted basis functions of B2U symmetry.
 There are    18 symmetry adapted basis functions of B3U symmetry.
 Integral buffers will be    131072 words long.
 Raffenetti 1 integral format.
 Two-electron integral symmetry is turned on.
   160 basis functions,   200 primitive gaussians,   160 cartesian basis functions
     7 alpha electrons        7 beta electrons
       nuclear repulsion energy        24.8053732005 Hartrees.
 NAtoms=    4 NActive=    4 NUniq=    2 SFac= 5.66D+00 NAtFMM=   60 Big=F
 One-electron integrals computed using PRISM.
 NBasis=   160 RedAO= T  NBF=    37     7    18    18     7    37    18    18
 NBsUse=   160 1.00D-06 NBFU=    37     7    18    18     7    37    18    18
 Harris functional with IExCor=  205 diagonalized for initial guess.
 ExpMin= 2.53D-02 ExpMax= 8.24D+03 ExpMxC= 2.81D+02 IAcc=3 IRadAn=         5 AccDes= 0.00D+00
 HarFok:  IExCor= 205 AccDes= 0.00D+00 IRadAn=         5 IDoV=1
 ScaDFX=  1.000000  1.000000  1.000000  1.000000
 Initial guess orbital symmetries:
       Occupied  (SGG) (SGU) (SGG) (SGU) (SGG) (PIU) (PIU)
       Virtual   (PIG) (PIG) (SGU) (SGG) (SGG) (PIU) (PIU) (SGU)
                 (SGG) (PIG) (PIG) (SGU) (SGG) (DLTG) (DLTG) (SGU)
                 (PIU) (PIU) (SGU) (SGG) (PIG) (PIG) (PIU) (PIU)
                 (DLTU) (DLTU) (SGG) (PIG) (PIG) (SGU) (SGG) (PIU)
                 (PIU) (SGU) (SGU) (SGG) (PIG) (PIG) (DLTG) (DLTG)
                 (SGG) (PIU) (PIU) (PIG) (PIG) (SGU) (DLTG) (DLTG)
                 (PHIU) (PHIU) (SGU) (DLTU) (DLTU) (PIU) (PIU)
                 (SGG) (PIU) (PIU) (DLTU) (DLTU) (SGU) (SGG) (PHIG)
                 (PHIG) (PIG) (PIG) (SGG) (SGU) (SGG) (SGU) (PIG)
                 (PIG) (DLTG) (DLTG) (SGU) (PIU) (PIU) (PIG) (PIG)
                 (SGG) (DLTU) (DLTU) (SGG) (PIU) (PIU) (SGU) (SGU)
                 (PIG) (PIG) (PIU) (PIU) (SGU) (DLTG) (DLTG) (SGG)
                 (SGG) (PIU) (PIU) (SGG) (PHIU) (PHIU) (DLTU) (DLTU)
                 (PIG) (PIG) (DLTG) (DLTG) (SGU) (PHIG) (PHIG)
                 (SGG) (PIU) (PIU) (SGU) (PIG) (PIG) (DLTU) (DLTU)
                 (DLTG) (DLTG) (SGU) (SGG) (DLTU) (DLTU) (SGU)
                 (PIG) (PIG) (SGG) (PIG) (PIG) (PIU) (PIU) (SGU)
                 (SGG) (PIU) (PIU) (SGG) (SGU) (PIG) (PIG) (SGU)
                 (PIU) (PIU) (SGG) (SGU) (SGU) (SGG) (SGG) (PIG)
                 (PIG) (SGU) (SGG) (SGU)
 The electronic state of the initial guess is 1-SGG.
 Requested convergence on RMS density matrix=1.00D-08 within 128 cycles.
 Requested convergence on MAX density matrix=1.00D-06.
 Requested convergence on             energy=1.00D-06.
 No special actions if energy rises.
 Keep R1 integrals in memory in canonical form, NReq=    87089298.
 SCF Done:  E(RHF) =  -76.8507624897     A.U. after    9 cycles
             Convg  =    0.8067D-08             -V/T =  2.0019
             S**2   =   0.0000

 **********************************************************************

            Population analysis using the SCF density.

 **********************************************************************

 Orbital symmetries:
       Occupied  (SGG) (SGU) (SGG) (SGU) (SGG) (PIU) (PIU)
       Virtual   (SGG) (SGU) (PIU) (PIU) (PIG) (PIG) (SGG) (SGU)
                 (SGG) (PIG) (PIG) (SGU) (SGU) (SGG) (PIU) (PIU)
                 (DLTG) (DLTG) (SGG) (SGU) (PIG) (PIG) (SGG) (DLTU)
                 (DLTU) (PIG) (PIG) (PIU) (PIU) (SGU) (SGU) (SGG)
                 (PIU) (PIU) (SGU) (SGG) (SGG) (PIG) (PIG) (PIU)
                 (PIU) (PIG) (PIG) (DLTG) (DLTG) (SGU) (DLTG) (DLTG)
                 (SGU) (DLTU) (DLTU) (SGG) (PHIU) (PHIU) (PIU)
                 (PIU) (SGG) (DLTU) (DLTU) (PIU) (PIU) (SGU) (PIG)
                 (PIG) (PHIG) (PHIG) (SGG) (SGU) (SGG) (SGU) (PIG)
                 (PIG) (DLTG) (DLTG) (SGU) (PIU) (PIU) (PIG) (PIG)
                 (SGG) (DLTU) (DLTU) (PIU) (PIU) (SGG) (SGU) (SGU)
                 (PIG) (PIG) (SGU) (SGG) (PIU) (PIU) (DLTG) (DLTG)
                 (SGG) (SGG) (PIU) (PIU) (PHIU) (PHIU) (DLTU) (DLTU)
                 (PIG) (PIG) (SGU) (DLTG) (DLTG) (PHIG) (PHIG)
                 (SGG) (PIU) (PIU) (SGU) (PIG) (PIG) (DLTU) (DLTU)
                 (DLTG) (DLTG) (SGU) (SGG) (SGU) (DLTU) (DLTU)
                 (PIG) (PIG) (SGG) (PIG) (PIG) (PIU) (PIU) (SGU)
                 (SGG) (PIU) (PIU) (SGG) (SGU) (PIG) (PIG) (SGU)
                 (PIU) (PIU) (SGU) (SGG) (SGU) (SGG) (SGG) (PIG)
                 (PIG) (SGU) (SGG) (SGU)
 The electronic state is 1-SGG.
 Alpha  occ. eigenvalues --  -11.24302 -11.23923  -1.03072  -0.77042  -0.68365
 Alpha  occ. eigenvalues --   -0.41089  -0.41089
 Alpha virt. eigenvalues --    0.02940   0.03233   0.09198   0.09198   0.09269
 Alpha virt. eigenvalues --    0.09269   0.10281   0.10961   0.13210   0.19031
 Alpha virt. eigenvalues --    0.19031   0.19287   0.25500   0.26607   0.27706
 Alpha virt. eigenvalues --    0.27706   0.30041   0.30041   0.33266   0.37200
 Alpha virt. eigenvalues --    0.37381   0.37381   0.39246   0.39962   0.39962
 Alpha virt. eigenvalues --    0.41571   0.41571   0.42962   0.42962   0.45908
 Alpha virt. eigenvalues --    0.55302   0.57529   0.58035   0.58035   0.69000
 Alpha virt. eigenvalues --    0.70679   0.79891   0.80507   0.80507   0.84857
 Alpha virt. eigenvalues --    0.84857   0.89215   0.89215   0.89359   0.89359
 Alpha virt. eigenvalues --    0.90556   1.01063   1.01063   1.01945   1.02806
 Alpha virt. eigenvalues --    1.02806   1.03581   1.05252   1.05252   1.14017
 Alpha virt. eigenvalues --    1.14017   1.18656   1.19651   1.19651   1.20828
 Alpha virt. eigenvalues --    1.20828   1.21804   1.29671   1.29671   1.29707
 Alpha virt. eigenvalues --    1.29707   1.34393   1.41163   1.52296   1.54148
 Alpha virt. eigenvalues --    1.60488   1.60488   1.64094   1.64094   1.74314
 Alpha virt. eigenvalues --    1.91457   1.91457   1.92336   1.92336   1.97959
 Alpha virt. eigenvalues --    2.03443   2.03443   2.08653   2.08653   2.09015
 Alpha virt. eigenvalues --    2.19413   2.34977   2.41466   2.41466   2.91021
 Alpha virt. eigenvalues --    3.04659   3.13961   3.13961   3.17074   3.17074
 Alpha virt. eigenvalues --    3.27308   3.34597   3.35323   3.35323   3.36125
 Alpha virt. eigenvalues --    3.36125   3.44141   3.44141   3.52670   3.52670
 Alpha virt. eigenvalues --    3.56369   3.57315   3.57315   3.69812   3.69812
 Alpha virt. eigenvalues --    3.73835   3.82653   3.82653   3.83719   4.03497
 Alpha virt. eigenvalues --    4.03497   4.11574   4.11574   4.17399   4.17399
 Alpha virt. eigenvalues --    4.18356   4.19788   4.68011   4.68430   4.68430
 Alpha virt. eigenvalues --    4.83988   4.83988   4.95493   5.07116   5.07116
 Alpha virt. eigenvalues --    5.10854   5.10854   5.61363   5.77997   5.91343
 Alpha virt. eigenvalues --    5.91343   6.16883   6.19293   6.84628   6.84628
 Alpha virt. eigenvalues --    7.19625   7.62613   7.62613   8.40434   8.50279
 Alpha virt. eigenvalues --    9.32077   9.49181   9.67352   9.91676   9.91676
 Alpha virt. eigenvalues --   11.58643  35.21255  36.78984
          Condensed to atoms (all electrons):
              1          2          3          4
     1  H    1.369115  -2.604668   0.457032   0.058016
     2  C   -2.604668  12.850685  -2.982545   0.457032
     3  C    0.457032  -2.982545  12.850685  -2.604668
     4  H    0.058016   0.457032  -2.604668   1.369115
 Mulliken atomic charges:
              1
     1  H    1.720504
     2  C   -1.720504
     3  C   -1.720504
     4  H    1.720504
 Sum of Mulliken charges=   0.00000
 Atomic charges with hydrogens summed into heavy atoms:
              1
     1  H    0.000000
     2  C    0.000000
     3  C    0.000000
     4  H    0.000000
 Sum of Mulliken charges=   0.00000
 Electronic spatial extent (au):  <R**2>=    60.9974
 Charge=     0.0000 electrons
 Dipole moment (field-independent basis, Debye):
    X=     0.0000    Y=     0.0000    Z=     0.0000  Tot=     0.0000
 Quadrupole moment (field-independent basis, Debye-Ang):
   XX=   -14.0122   YY=   -14.0122   ZZ=    -6.7231
   XY=     0.0000   XZ=     0.0000   YZ=     0.0000
 Traceless Quadrupole moment (field-independent basis, Debye-Ang):
   XX=    -2.4297   YY=    -2.4297   ZZ=     4.8594
   XY=     0.0000   XZ=     0.0000   YZ=     0.0000
 Octapole moment (field-independent basis, Debye-Ang**2):
  XXX=     0.0000  YYY=     0.0000  ZZZ=     0.0000  XYY=     0.0000
  XXY=     0.0000  XXZ=     0.0000  XZZ=     0.0000  YZZ=     0.0000
  YYZ=     0.0000  XYZ=     0.0000
 Hexadecapole moment (field-independent basis, Debye-Ang**3):
 XXXX=   -17.7759 YYYY=   -17.7759 ZZZZ=   -36.2651 XXXY=     0.0000
 XXXZ=     0.0000 YYYX=     0.0000 YYYZ=     0.0000 ZZZX=     0.0000
 ZZZY=     0.0000 XXYY=    -5.9253 XXZZ=   -12.5985 YYZZ=   -12.5985
 XXYZ=     0.0000 YYXZ=     0.0000 ZZXY=     0.0000
 N-N= 2.480537320047D+01 E-N=-2.284434170325D+02  KE= 7.670875773824D+01
 Symmetry AG   KE= 3.801432395596D+01
 Symmetry B1G  KE= 4.420465899104D-33
 Symmetry B2G  KE=-1.005822006220D-19
 Symmetry B3G  KE=-9.406505852647D-20
 Symmetry AU   KE= 1.073481162621D-31
 Symmetry B1U  KE= 3.450054896127D+01
 Symmetry B2U  KE= 2.096942410503D+00
 Symmetry B3U  KE= 2.096942410503D+00
 1\1\GINC-CHMSGI\SP\RHF\Aug-CC-pVTZ\C2H2\MONTUORO\20-Oct-2006\0\\# HF/A
 UG-CC-PVTZ SCF=TIGHT 6D 10F GFINPUT PUNCH=MO UNITS=AU\\C6H6 experiment
 al geometry (from patmol 0.7)\\0,1\H,0,0.,0.,-1.658018029\C,0,0.,0.,-0
 .6019919922\C,0,0.,0.,0.6019919922\H,0,0.,0.,1.658018029\\Version=SGI6
 4-G03RevC.02\State=1-SGG\HF=-76.8507625\RMSD=8.067e-09\Dipole=0.,0.,0.
 \PG=D*H [C*(H1C1.C1H1)]\\@


 GARLIC THEN HAVE POWER TO SAVE FROM DEATH
 BEAR WITH IT THOUGH IT MAKETH UNSAVORY BREATH,
 AND SCORN NOT GARLIC LIKE SOME THAT THINK
 IT ONLY MAKETH MEN WINK AND DRINK AND STINK.
   --  SIR JOHN HARRINGTON,
       "THE ENGLISHMAN'S DOCTOR", 1609
 Job cpu time:  0 days  0 hours  1 minutes 12.7 seconds.
 File lengths (MBytes):  RWF=     22 Int=      0 D2E=      0 Chk=     11 Scr=      1
 Normal termination of Gaussian 03 at Fri Oct 20 09:57:26 2006.
(5D15.8)
    1 Alpha MO OE=-0.11243020D+02
 0.40765649D-03 0.96238932D-03 0.30173701D+00 0.00000000D+00 0.00000000D+00
 0.10008921D-03 0.00000000D+00 0.00000000D+00 0.29959910D-02 0.17903617D-03
 0.17903617D-03-0.39569830D-03 0.00000000D+00 0.00000000D+00 0.00000000D+00
-0.29515288D-03 0.00000000D+00 0.00000000D+00-0.44962572D-01 0.21743437D-02
 0.21743437D-02-0.24753351D-03 0.00000000D+00 0.00000000D+00 0.00000000D+00
 0.69185498D+00-0.53415120D-02 0.36759061D-01-0.18352378D+00 0.00000000D+00
 0.00000000D+00 0.99539543D-03 0.00000000D+00 0.00000000D+00-0.18120306D-03
 0.00000000D+00 0.00000000D+00-0.60110331D-01 0.12321447D-02 0.12321447D-02
 0.24580355D-02 0.00000000D+00 0.00000000D+00 0.00000000D+00 0.90671001D-02
 0.90671001D-02 0.13809880D-01 0.00000000D+00 0.00000000D+00 0.00000000D+00
 0.00000000D+00 0.00000000D+00 0.20586797D-02 0.00000000D+00 0.00000000D+00
 0.83197320D-03 0.00000000D+00 0.00000000D+00 0.83197320D-03 0.00000000D+00
 0.26709308D-02 0.00000000D+00 0.00000000D+00 0.10469020D-02-0.85141712D-02
-0.85141712D-02-0.12792502D+00 0.00000000D+00 0.00000000D+00 0.00000000D+00
 0.00000000D+00 0.00000000D+00-0.79459414D-04 0.00000000D+00 0.00000000D+00
 0.18956801D-02 0.00000000D+00 0.00000000D+00 0.18956801D-02 0.00000000D+00
 0.69185498D+00-0.53415120D-02 0.36759061D-01-0.18352378D+00 0.00000000D+00
 0.00000000D+00-0.99539543D-03 0.00000000D+00 0.00000000D+00 0.18120306D-03
 0.00000000D+00 0.00000000D+00 0.60110331D-01 0.12321447D-02 0.12321447D-02
 0.24580355D-02 0.00000000D+00 0.00000000D+00 0.00000000D+00 0.90671001D-02
 0.90671001D-02 0.13809880D-01 0.00000000D+00 0.00000000D+00 0.00000000D+00
 0.00000000D+00 0.00000000D+00-0.20586797D-02 0.00000000D+00 0.00000000D+00
-0.83197320D-03 0.00000000D+00 0.00000000D+00-0.83197320D-03 0.00000000D+00
 0.26709308D-02 0.00000000D+00 0.00000000D+00-0.10469020D-02-0.85141712D-02
-0.85141712D-02-0.12792502D+00 0.00000000D+00 0.00000000D+00 0.00000000D+00
 0.00000000D+00 0.00000000D+00 0.79459414D-04 0.00000000D+00 0.00000000D+00
-0.18956801D-02 0.00000000D+00 0.00000000D+00-0.18956801D-02 0.00000000D+00
 0.40765649D-03 0.96238932D-03 0.30173701D+00 0.00000000D+00 0.00000000D+00
-0.10008921D-03 0.00000000D+00 0.00000000D+00-0.29959910D-02 0.17903617D-03
 0.17903617D-03-0.39569830D-03 0.00000000D+00 0.00000000D+00 0.00000000D+00
-0.29515288D-03 0.00000000D+00 0.00000000D+00 0.44962572D-01 0.21743437D-02
 0.21743437D-02-0.24753351D-03 0.00000000D+00 0.00000000D+00 0.00000000D+00
    2 Alpha MO OE=-0.11239226D+02
 0.39198595D-04 0.96632307D-02 0.77407172D-01 0.00000000D+00 0.00000000D+00
-0.40498373D-05 0.00000000D+00 0.00000000D+00-0.37556675D-02-0.13873345D-03
-0.13873345D-03-0.29904690D-03 0.00000000D+00 0.00000000D+00 0.00000000D+00
-0.58368645D-03 0.00000000D+00 0.00000000D+00-0.10831156D-01-0.25581821D-02
-0.25581821D-02-0.18919752D-02 0.00000000D+00 0.00000000D+00 0.00000000D+00
 0.69252562D+00-0.55338392D-02 0.36825188D-01-0.27102814D+00 0.00000000D+00
 0.00000000D+00 0.15263786D-02 0.00000000D+00 0.00000000D+00-0.96890385D-02
 0.00000000D+00 0.00000000D+00 0.52658106D-01 0.12664349D-02 0.12664349D-02
 0.23977852D-02 0.00000000D+00 0.00000000D+00 0.00000000D+00 0.11002889D-01
 0.11002889D-01 0.40871312D-02 0.00000000D+00 0.00000000D+00 0.00000000D+00
 0.00000000D+00 0.00000000D+00 0.13588801D-02 0.00000000D+00 0.00000000D+00
 0.86067042D-03 0.00000000D+00 0.00000000D+00 0.86067042D-03 0.00000000D+00
 0.11587059D-01 0.00000000D+00 0.00000000D+00-0.25042254D-03-0.14577521D-01
-0.14577521D-01-0.47345720D-01 0.00000000D+00 0.00000000D+00 0.00000000D+00
 0.00000000D+00 0.00000000D+00-0.45393019D-02 0.00000000D+00 0.00000000D+00
 0.63292945D-03 0.00000000D+00 0.00000000D+00 0.63292945D-03 0.00000000D+00
-0.69252562D+00 0.55338392D-02-0.36825188D-01 0.27102814D+00 0.00000000D+00
 0.00000000D+00 0.15263786D-02 0.00000000D+00 0.00000000D+00-0.96890385D-02
 0.00000000D+00 0.00000000D+00 0.52658106D-01-0.12664349D-02-0.12664349D-02
-0.23977852D-02 0.00000000D+00 0.00000000D+00 0.00000000D+00-0.11002889D-01
-0.11002889D-01-0.40871312D-02 0.00000000D+00 0.00000000D+00 0.00000000D+00
 0.00000000D+00 0.00000000D+00 0.13588801D-02 0.00000000D+00 0.00000000D+00
 0.86067042D-03 0.00000000D+00 0.00000000D+00 0.86067042D-03 0.00000000D+00
-0.11587059D-01 0.00000000D+00 0.00000000D+00-0.25042254D-03 0.14577521D-01
 0.14577521D-01 0.47345720D-01 0.00000000D+00 0.00000000D+00 0.00000000D+00
 0.00000000D+00 0.00000000D+00-0.45393019D-02 0.00000000D+00 0.00000000D+00
 0.63292945D-03 0.00000000D+00 0.00000000D+00 0.63292945D-03 0.00000000D+00
-0.39198595D-04-0.96632307D-02-0.77407172D-01 0.00000000D+00 0.00000000D+00
-0.40498373D-05 0.00000000D+00 0.00000000D+00-0.37556675D-02 0.13873345D-03
 0.13873345D-03 0.29904690D-03 0.00000000D+00 0.00000000D+00 0.00000000D+00
 0.58368645D-03 0.00000000D+00 0.00000000D+00-0.10831156D-01 0.25581821D-02
 0.25581821D-02 0.18919752D-02 0.00000000D+00 0.00000000D+00 0.00000000D+00
    3 Alpha MO OE=-0.10307246D+01
-0.45925447D-01 0.76075419D-01 0.39280918D+00 0.00000000D+00 0.00000000D+00
 0.50399446D-02 0.00000000D+00 0.00000000D+00 0.44502588D-04-0.11100255D-02
-0.11100255D-02-0.11572574D-02 0.00000000D+00 0.00000000D+00 0.00000000D+00
 0.17371089D-03 0.00000000D+00 0.00000000D+00-0.46094132D-01 0.16581472D-01
 0.16581472D-01-0.15343606D-02 0.00000000D+00 0.00000000D+00 0.00000000D+00
 0.16127035D+00-0.38099708D+00-0.92495025D-01-0.33935915D+00 0.00000000D+00
 0.00000000D+00 0.97447877D-01 0.00000000D+00 0.00000000D+00 0.23546408D-01
 0.00000000D+00 0.00000000D+00-0.15168140D-01 0.71358845D-02 0.71358845D-02
-0.22813112D-01 0.00000000D+00 0.00000000D+00 0.00000000D+00 0.52215368D-02
 0.52215368D-02-0.39264291D-02 0.00000000D+00 0.00000000D+00 0.00000000D+00
 0.00000000D+00 0.00000000D+00 0.11849610D-01 0.00000000D+00 0.00000000D+00
 0.10799444D-02 0.00000000D+00 0.00000000D+00 0.10799444D-02 0.00000000D+00
-0.61773539D-02 0.00000000D+00 0.00000000D+00 0.58957613D-02 0.49597065D-03
 0.49597065D-03-0.21253174D+00 0.00000000D+00 0.00000000D+00 0.00000000D+00
 0.00000000D+00 0.00000000D+00-0.10622215D+00 0.00000000D+00 0.00000000D+00
-0.77313867D-02 0.00000000D+00 0.00000000D+00-0.77313867D-02 0.00000000D+00
 0.16127035D+00-0.38099708D+00-0.92495025D-01-0.33935915D+00 0.00000000D+00
 0.00000000D+00-0.97447877D-01 0.00000000D+00 0.00000000D+00-0.23546408D-01
 0.00000000D+00 0.00000000D+00 0.15168140D-01 0.71358845D-02 0.71358845D-02
-0.22813112D-01 0.00000000D+00 0.00000000D+00 0.00000000D+00 0.52215368D-02
 0.52215368D-02-0.39264291D-02 0.00000000D+00 0.00000000D+00 0.00000000D+00
 0.00000000D+00 0.00000000D+00-0.11849610D-01 0.00000000D+00 0.00000000D+00
-0.10799444D-02 0.00000000D+00 0.00000000D+00-0.10799444D-02 0.00000000D+00
-0.61773539D-02 0.00000000D+00 0.00000000D+00-0.58957613D-02 0.49597065D-03
 0.49597065D-03-0.21253174D+00 0.00000000D+00 0.00000000D+00 0.00000000D+00
 0.00000000D+00 0.00000000D+00 0.10622215D+00 0.00000000D+00 0.00000000D+00
 0.77313867D-02 0.00000000D+00 0.00000000D+00 0.77313867D-02 0.00000000D+00
-0.45925447D-01 0.76075419D-01 0.39280918D+00 0.00000000D+00 0.00000000D+00
-0.50399446D-02 0.00000000D+00 0.00000000D+00-0.44502588D-04-0.11100255D-02
-0.11100255D-02-0.11572574D-02 0.00000000D+00 0.00000000D+00 0.00000000D+00
 0.17371089D-03 0.00000000D+00 0.00000000D+00 0.46094132D-01 0.16581472D-01
 0.16581472D-01-0.15343606D-02 0.00000000D+00 0.00000000D+00 0.00000000D+00
    4 Alpha MO OE=-0.77041690D+00
 0.13315890D+00 0.96242883D-01-0.59738372D+00 0.00000000D+00 0.00000000D+00
-0.13850381D-01 0.00000000D+00 0.00000000D+00 0.25343353D-03 0.66970683D-04
 0.66970683D-04 0.52663997D-02 0.00000000D+00 0.00000000D+00 0.00000000D+00
 0.92068264D-02 0.00000000D+00 0.00000000D+00 0.10157360D+00 0.60987526D-02
 0.60987526D-02 0.93682278D-02 0.00000000D+00 0.00000000D+00 0.00000000D+00
-0.10395774D+00 0.25192442D+00 0.59045731D-01 0.13178026D+01 0.00000000D+00
 0.00000000D+00 0.11291930D+00 0.00000000D+00 0.00000000D+00 0.81775655D-01
 0.00000000D+00 0.00000000D+00 0.73869844D-01-0.40333693D-02-0.40333693D-02
 0.15630369D-01 0.00000000D+00 0.00000000D+00 0.00000000D+00-0.21533363D-01
-0.21533363D-01 0.70220121D-01 0.00000000D+00 0.00000000D+00 0.00000000D+00
 0.00000000D+00 0.00000000D+00 0.57030554D-03 0.00000000D+00 0.00000000D+00
 0.22058042D-02 0.00000000D+00 0.00000000D+00 0.22058042D-02 0.00000000D+00
 0.34503038D-01 0.00000000D+00 0.00000000D+00-0.15491238D-01 0.75263725D-01
 0.75263725D-01 0.26761679D+00 0.00000000D+00 0.00000000D+00 0.00000000D+00
 0.00000000D+00 0.00000000D+00 0.66447164D-02 0.00000000D+00 0.00000000D+00
-0.19562071D-01 0.00000000D+00 0.00000000D+00-0.19562071D-01 0.00000000D+00
 0.10395774D+00-0.25192442D+00-0.59045731D-01-0.13178026D+01 0.00000000D+00
 0.00000000D+00 0.11291930D+00 0.00000000D+00 0.00000000D+00 0.81775655D-01
 0.00000000D+00 0.00000000D+00 0.73869844D-01 0.40333693D-02 0.40333693D-02
-0.15630369D-01 0.00000000D+00 0.00000000D+00 0.00000000D+00 0.21533363D-01
 0.21533363D-01-0.70220121D-01 0.00000000D+00 0.00000000D+00 0.00000000D+00
 0.00000000D+00 0.00000000D+00 0.57030554D-03 0.00000000D+00 0.00000000D+00
 0.22058042D-02 0.00000000D+00 0.00000000D+00 0.22058042D-02 0.00000000D+00
-0.34503038D-01 0.00000000D+00 0.00000000D+00-0.15491238D-01-0.75263725D-01
-0.75263725D-01-0.26761679D+00 0.00000000D+00 0.00000000D+00 0.00000000D+00
 0.00000000D+00 0.00000000D+00 0.66447164D-02 0.00000000D+00 0.00000000D+00
-0.19562071D-01 0.00000000D+00 0.00000000D+00-0.19562071D-01 0.00000000D+00
-0.13315890D+00-0.96242883D-01 0.59738372D+00 0.00000000D+00 0.00000000D+00
-0.13850381D-01 0.00000000D+00 0.00000000D+00 0.25343353D-03-0.66970683D-04
-0.66970683D-04-0.52663997D-02 0.00000000D+00 0.00000000D+00 0.00000000D+00
-0.92068264D-02 0.00000000D+00 0.00000000D+00 0.10157360D+00-0.60987526D-02
-0.60987526D-02-0.93682278D-02 0.00000000D+00 0.00000000D+00 0.00000000D+00
    5 Alpha MO OE=-0.68364510D+00
-0.13175949D+00-0.14444952D+00 0.46910558D+00 0.00000000D+00 0.00000000D+00
 0.11625802D-01 0.00000000D+00 0.00000000D+00-0.16880774D-02 0.39482665D-03
 0.39482665D-03-0.47847281D-02 0.00000000D+00 0.00000000D+00 0.00000000D+00
-0.92671015D-03 0.00000000D+00 0.00000000D+00-0.90754070D-01-0.62256243D-02
-0.62256243D-02-0.30214083D-02 0.00000000D+00 0.00000000D+00 0.00000000D+00
 0.36289991D-02-0.10419085D-01 0.21756809D-02-0.38758080D+00 0.00000000D+00
 0.00000000D+00-0.22175861D+00 0.00000000D+00 0.00000000D+00-0.22726546D+00
 0.00000000D+00 0.00000000D+00-0.21327911D+00-0.23619187D-03-0.23619187D-03
 0.26180917D-02 0.00000000D+00 0.00000000D+00 0.00000000D+00 0.14738672D-01
 0.14738672D-01-0.35055272D-01 0.00000000D+00 0.00000000D+00 0.00000000D+00
 0.00000000D+00 0.00000000D+00-0.16887893D-01 0.00000000D+00 0.00000000D+00
 0.57172830D-03 0.00000000D+00 0.00000000D+00 0.57172830D-03 0.00000000D+00
 0.50593463D-02 0.00000000D+00 0.00000000D+00 0.15419429D-03-0.20259088D-01
-0.20259088D-01-0.17542438D+00 0.00000000D+00 0.00000000D+00 0.00000000D+00
 0.00000000D+00 0.00000000D+00 0.99898045D-02 0.00000000D+00 0.00000000D+00
 0.55437492D-02 0.00000000D+00 0.00000000D+00 0.55437492D-02 0.00000000D+00
 0.36289991D-02-0.10419085D-01 0.21756809D-02-0.38758080D+00 0.00000000D+00
 0.00000000D+00 0.22175861D+00 0.00000000D+00 0.00000000D+00 0.22726546D+00
 0.00000000D+00 0.00000000D+00 0.21327911D+00-0.23619187D-03-0.23619187D-03
 0.26180917D-02 0.00000000D+00 0.00000000D+00 0.00000000D+00 0.14738672D-01
 0.14738672D-01-0.35055272D-01 0.00000000D+00 0.00000000D+00 0.00000000D+00
 0.00000000D+00 0.00000000D+00 0.16887893D-01 0.00000000D+00 0.00000000D+00
-0.57172830D-03 0.00000000D+00 0.00000000D+00-0.57172830D-03 0.00000000D+00
 0.50593463D-02 0.00000000D+00 0.00000000D+00-0.15419429D-03-0.20259088D-01
-0.20259088D-01-0.17542438D+00 0.00000000D+00 0.00000000D+00 0.00000000D+00
 0.00000000D+00 0.00000000D+00-0.99898045D-02 0.00000000D+00 0.00000000D+00
-0.55437492D-02 0.00000000D+00 0.00000000D+00-0.55437492D-02 0.00000000D+00
-0.13175949D+00-0.14444952D+00 0.46910558D+00 0.00000000D+00 0.00000000D+00
-0.11625802D-01 0.00000000D+00 0.00000000D+00 0.16880774D-02 0.39482665D-03
 0.39482665D-03-0.47847281D-02 0.00000000D+00 0.00000000D+00 0.00000000D+00
-0.92671015D-03 0.00000000D+00 0.00000000D+00 0.90754070D-01-0.62256243D-02
-0.62256243D-02-0.30214083D-02 0.00000000D+00 0.00000000D+00 0.00000000D+00
    6 Alpha MO OE=-0.41088669D+00
 0.00000000D+00 0.00000000D+00 0.00000000D+00 0.42548809D-02 0.00000000D+00
 0.00000000D+00 0.82681128D-02 0.00000000D+00 0.00000000D+00 0.00000000D+00
 0.00000000D+00 0.00000000D+00 0.00000000D+00-0.14297628D-03 0.00000000D+00
 0.00000000D+00 0.16644516D-02 0.00000000D+00 0.00000000D+00 0.00000000D+00
 0.00000000D+00 0.00000000D+00 0.00000000D+00 0.12935821D-02 0.00000000D+00
 0.00000000D+00 0.00000000D+00 0.00000000D+00 0.00000000D+00 0.22352716D+00
 0.00000000D+00 0.00000000D+00 0.26309981D+00 0.00000000D+00 0.00000000D+00
 0.15961525D+00 0.00000000D+00 0.00000000D+00 0.00000000D+00 0.00000000D+00
 0.00000000D+00 0.00000000D+00-0.16469400D-01 0.00000000D+00 0.00000000D+00
 0.00000000D+00 0.00000000D+00 0.00000000D+00-0.18752418D-01 0.00000000D+00
 0.94195722D-02 0.00000000D+00 0.00000000D+00 0.42125607D-02 0.00000000D+00
 0.00000000D+00 0.17577328D-01 0.00000000D+00 0.00000000D+00 0.00000000D+00
 0.00000000D+00 0.15208919D-01 0.00000000D+00 0.00000000D+00 0.00000000D+00
 0.00000000D+00 0.00000000D+00 0.00000000D+00-0.52802385D-03 0.00000000D+00
 0.16591411D-01 0.00000000D+00 0.00000000D+00 0.74199043D-02 0.00000000D+00
 0.00000000D+00 0.11295753D-01 0.00000000D+00 0.00000000D+00 0.00000000D+00
 0.00000000D+00 0.00000000D+00 0.00000000D+00 0.00000000D+00 0.22352716D+00
 0.00000000D+00 0.00000000D+00 0.26309981D+00 0.00000000D+00 0.00000000D+00
 0.15961525D+00 0.00000000D+00 0.00000000D+00 0.00000000D+00 0.00000000D+00
 0.00000000D+00 0.00000000D+00 0.16469400D-01 0.00000000D+00 0.00000000D+00
 0.00000000D+00 0.00000000D+00 0.00000000D+00 0.18752418D-01 0.00000000D+00
 0.94195722D-02 0.00000000D+00 0.00000000D+00 0.42125607D-02 0.00000000D+00
 0.00000000D+00 0.17577328D-01 0.00000000D+00 0.00000000D+00 0.00000000D+00
 0.00000000D+00 0.15208919D-01 0.00000000D+00 0.00000000D+00 0.00000000D+00
 0.00000000D+00 0.00000000D+00 0.00000000D+00 0.52802385D-03 0.00000000D+00
 0.16591411D-01 0.00000000D+00 0.00000000D+00 0.74199043D-02 0.00000000D+00
 0.00000000D+00 0.11295753D-01 0.00000000D+00 0.00000000D+00 0.00000000D+00
 0.00000000D+00 0.00000000D+00 0.00000000D+00 0.42548809D-02 0.00000000D+00
 0.00000000D+00 0.82681128D-02 0.00000000D+00 0.00000000D+00 0.00000000D+00
 0.00000000D+00 0.00000000D+00 0.00000000D+00 0.14297628D-03 0.00000000D+00
 0.00000000D+00 0.16644516D-02 0.00000000D+00 0.00000000D+00 0.00000000D+00
 0.00000000D+00 0.00000000D+00 0.00000000D+00-0.12935821D-02 0.00000000D+00
    7 Alpha MO OE=-0.41088669D+00
 0.00000000D+00 0.00000000D+00 0.00000000D+00 0.00000000D+00 0.42548809D-02
 0.00000000D+00 0.00000000D+00 0.82681128D-02 0.00000000D+00 0.00000000D+00
 0.00000000D+00 0.00000000D+00 0.00000000D+00 0.00000000D+00-0.14297628D-03
 0.00000000D+00 0.00000000D+00 0.16644516D-02 0.00000000D+00 0.00000000D+00
 0.00000000D+00 0.00000000D+00 0.00000000D+00 0.00000000D+00 0.12935821D-02
 0.00000000D+00 0.00000000D+00 0.00000000D+00 0.00000000D+00 0.00000000D+00
 0.22352716D+00 0.00000000D+00 0.00000000D+00 0.26309981D+00 0.00000000D+00
 0.00000000D+00 0.15961525D+00 0.00000000D+00 0.00000000D+00 0.00000000D+00
 0.00000000D+00 0.00000000D+00 0.00000000D+00-0.16469400D-01 0.00000000D+00
 0.00000000D+00 0.00000000D+00 0.00000000D+00 0.00000000D+00-0.18752418D-01
 0.00000000D+00 0.94195722D-02 0.00000000D+00 0.00000000D+00 0.42125607D-02
 0.00000000D+00 0.00000000D+00 0.17577328D-01 0.00000000D+00 0.00000000D+00
 0.00000000D+00 0.00000000D+00 0.15208919D-01 0.00000000D+00 0.00000000D+00
 0.00000000D+00 0.00000000D+00 0.00000000D+00 0.00000000D+00-0.52802385D-03
 0.00000000D+00 0.16591411D-01 0.00000000D+00 0.00000000D+00 0.74199043D-02
 0.00000000D+00 0.00000000D+00 0.11295753D-01 0.00000000D+00 0.00000000D+00
 0.00000000D+00 0.00000000D+00 0.00000000D+00 0.00000000D+00 0.00000000D+00
 0.22352716D+00 0.00000000D+00 0.00000000D+00 0.26309981D+00 0.00000000D+00
 0.00000000D+00 0.15961525D+00 0.00000000D+00 0.00000000D+00 0.00000000D+00
 0.00000000D+00 0.00000000D+00 0.00000000D+00 0.16469400D-01 0.00000000D+00
 0.00000000D+00 0.00000000D+00 0.00000000D+00 0.00000000D+00 0.18752418D-01
 0.00000000D+00 0.94195722D-02 0.00000000D+00 0.00000000D+00 0.42125607D-02
 0.00000000D+00 0.00000000D+00 0.17577328D-01 0.00000000D+00 0.00000000D+00
 0.00000000D+00 0.00000000D+00 0.15208919D-01 0.00000000D+00 0.00000000D+00
 0.00000000D+00 0.00000000D+00 0.00000000D+00 0.00000000D+00 0.52802385D-03
 0.00000000D+00 0.16591411D-01 0.00000000D+00 0.00000000D+00 0.74199043D-02
 0.00000000D+00 0.00000000D+00 0.11295753D-01 0.00000000D+00 0.00000000D+00
 0.00000000D+00 0.00000000D+00 0.00000000D+00 0.00000000D+00 0.42548809D-02
 0.00000000D+00 0.00000000D+00 0.82681128D-02 0.00000000D+00 0.00000000D+00
 0.00000000D+00 0.00000000D+00 0.00000000D+00 0.00000000D+00 0.14297628D-03
 0.00000000D+00 0.00000000D+00 0.16644516D-02 0.00000000D+00 0.00000000D+00
 0.00000000D+00 0.00000000D+00 0.00000000D+00 0.00000000D+00-0.12935821D-02
    8 Alpha MO OE= 0.29399463D-01
 0.15972961D-01 0.64263667D+00 0.22523690D+02 0.00000000D+00 0.00000000D+00
-0.62685490D-03 0.00000000D+00 0.00000000D+00 0.61562476D-01 0.43812491D-02
 0.43812491D-02 0.11783539D-02 0.00000000D+00 0.00000000D+00 0.00000000D+00
-0.24766648D+01 0.00000000D+00 0.00000000D+00-0.32276658D+01 0.23719146D+00
 0.23719146D+00 0.61479377D-01 0.00000000D+00 0.00000000D+00 0.00000000D+00
-0.11682607D-01 0.34034709D-01 0.10206167D-01-0.12038040D+02 0.00000000D+00
 0.00000000D+00 0.16223721D-01 0.00000000D+00 0.00000000D+00 0.22235789D-01
 0.00000000D+00 0.00000000D+00-0.34391355D+01-0.78050956D-03-0.78050956D-03
 0.18628335D-03 0.00000000D+00 0.00000000D+00 0.00000000D+00 0.99306789D-03
 0.99306789D-03 0.18590582D+00 0.00000000D+00 0.00000000D+00 0.00000000D+00
 0.00000000D+00 0.00000000D+00 0.84442092D-02 0.00000000D+00 0.00000000D+00
 0.23549197D-04 0.00000000D+00 0.00000000D+00 0.23549198D-04 0.00000000D+00
 0.41988044D+01 0.00000000D+00 0.00000000D+00 0.12357367D+01-0.12756801D+01
-0.12756801D+01-0.11229412D+02 0.00000000D+00 0.00000000D+00 0.00000000D+00
 0.00000000D+00 0.00000000D+00-0.34802140D+00 0.00000000D+00 0.00000000D+00
-0.16057227D-02 0.00000000D+00 0.00000000D+00-0.16057227D-02 0.00000000D+00
-0.11682607D-01 0.34034709D-01 0.10206167D-01-0.12038040D+02 0.00000000D+00
 0.00000000D+00-0.16223721D-01 0.00000000D+00 0.00000000D+00-0.22235789D-01
 0.00000000D+00 0.00000000D+00 0.34391355D+01-0.78050956D-03-0.78050956D-03
 0.18628335D-03 0.00000000D+00 0.00000000D+00 0.00000000D+00 0.99306789D-03
 0.99306789D-03 0.18590582D+00 0.00000000D+00 0.00000000D+00 0.00000000D+00
 0.00000000D+00 0.00000000D+00-0.84442092D-02 0.00000000D+00 0.00000000D+00
-0.23549197D-04 0.00000000D+00 0.00000000D+00-0.23549198D-04 0.00000000D+00
 0.41988044D+01 0.00000000D+00 0.00000000D+00-0.12357367D+01-0.12756801D+01
-0.12756801D+01-0.11229412D+02 0.00000000D+00 0.00000000D+00 0.00000000D+00
 0.00000000D+00 0.00000000D+00 0.34802140D+00 0.00000000D+00 0.00000000D+00
 0.16057227D-02 0.00000000D+00 0.00000000D+00 0.16057227D-02 0.00000000D+00
 0.15972961D-01 0.64263667D+00 0.22523690D+02 0.00000000D+00 0.00000000D+00
 0.62685490D-03 0.00000000D+00 0.00000000D+00-0.61562476D-01 0.43812491D-02
 0.43812491D-02 0.11783539D-02 0.00000000D+00 0.00000000D+00 0.00000000D+00
-0.24766648D+01 0.00000000D+00 0.00000000D+00 0.32276658D+01 0.23719146D+00
 0.23719146D+00 0.61479377D-01 0.00000000D+00 0.00000000D+00 0.00000000D+00
    9 Alpha MO OE= 0.32325755D-01
-0.12264073D-01-0.24591566D+00 0.13799695D+01 0.00000000D+00 0.00000000D+00
 0.24372064D-02 0.00000000D+00 0.00000000D+00 0.18798904D-01-0.44054510D-02
-0.44054510D-02-0.85712151D-02 0.00000000D+00 0.00000000D+00 0.00000000D+00
 0.75890210D+01 0.00000000D+00 0.00000000D+00 0.16825599D+00-0.12714647D+00
-0.12714647D+00-0.14637658D+00 0.00000000D+00 0.00000000D+00 0.00000000D+00
 0.11556144D-01-0.24042931D-01-0.19853862D-01-0.91173111D+01 0.00000000D+00
 0.00000000D+00-0.11762323D-01 0.00000000D+00 0.00000000D+00 0.29251511D-01
 0.00000000D+00 0.00000000D+00 0.23808866D+01-0.31901923D-02-0.31901923D-02
-0.30826198D-02 0.00000000D+00 0.00000000D+00 0.00000000D+00-0.22916404D-02
-0.22916404D-02-0.88910067D-01 0.00000000D+00 0.00000000D+00 0.00000000D+00
 0.00000000D+00 0.00000000D+00 0.47836304D-02 0.00000000D+00 0.00000000D+00
-0.20936735D-02 0.00000000D+00 0.00000000D+00-0.20936735D-02 0.00000000D+00
 0.28948652D+02 0.00000000D+00 0.00000000D+00-0.89405274D+01-0.16244348D+01
-0.16244348D+01-0.24495161D+01 0.00000000D+00 0.00000000D+00 0.00000000D+00
 0.00000000D+00 0.00000000D+00-0.59550162D-01 0.00000000D+00 0.00000000D+00
-0.18604524D-01 0.00000000D+00 0.00000000D+00-0.18604524D-01 0.00000000D+00
-0.11556144D-01 0.24042931D-01 0.19853862D-01 0.91173111D+01 0.00000000D+00
 0.00000000D+00-0.11762323D-01 0.00000000D+00 0.00000000D+00 0.29251511D-01
 0.00000000D+00 0.00000000D+00 0.23808866D+01 0.31901923D-02 0.31901923D-02
 0.30826198D-02 0.00000000D+00 0.00000000D+00 0.00000000D+00 0.22916404D-02
 0.22916404D-02 0.88910067D-01 0.00000000D+00 0.00000000D+00 0.00000000D+00
 0.00000000D+00 0.00000000D+00 0.47836304D-02 0.00000000D+00 0.00000000D+00
-0.20936735D-02 0.00000000D+00 0.00000000D+00-0.20936735D-02 0.00000000D+00
-0.28948652D+02 0.00000000D+00 0.00000000D+00-0.89405274D+01 0.16244348D+01
 0.16244348D+01 0.24495161D+01 0.00000000D+00 0.00000000D+00 0.00000000D+00
 0.00000000D+00 0.00000000D+00-0.59550162D-01 0.00000000D+00 0.00000000D+00
-0.18604524D-01 0.00000000D+00 0.00000000D+00-0.18604524D-01 0.00000000D+00
 0.12264073D-01 0.24591566D+00-0.13799695D+01 0.00000000D+00 0.00000000D+00
 0.24372064D-02 0.00000000D+00 0.00000000D+00 0.18798904D-01 0.44054510D-02
 0.44054510D-02 0.85712151D-02 0.00000000D+00 0.00000000D+00 0.00000000D+00
-0.75890210D+01 0.00000000D+00 0.00000000D+00 0.16825599D+00 0.12714647D+00
 0.12714647D+00 0.14637658D+00 0.00000000D+00 0.00000000D+00 0.00000000D+00
   10 Alpha MO OE= 0.91981386D-01
 0.00000000D+00 0.00000000D+00 0.00000000D+00 0.31211827D-02 0.00000000D+00
 0.00000000D+00-0.44615354D-01 0.00000000D+00 0.00000000D+00 0.00000000D+00
 0.00000000D+00 0.00000000D+00 0.00000000D+00 0.11984603D-03 0.00000000D+00
 0.00000000D+00-0.39605533D+00 0.00000000D+00 0.00000000D+00 0.00000000D+00
 0.00000000D+00 0.00000000D+00 0.00000000D+00 0.66535800D-01 0.00000000D+00
 0.00000000D+00 0.00000000D+00 0.00000000D+00 0.00000000D+00-0.32191543D-01
 0.00000000D+00 0.00000000D+00-0.16345208D-01 0.00000000D+00 0.00000000D+00
-0.26484316D+00 0.00000000D+00 0.00000000D+00 0.00000000D+00 0.00000000D+00
 0.00000000D+00 0.00000000D+00 0.36046401D-02 0.00000000D+00 0.00000000D+00
 0.00000000D+00 0.00000000D+00 0.00000000D+00 0.42955285D-01 0.00000000D+00
 0.25843910D-01 0.00000000D+00 0.00000000D+00 0.11557748D-01 0.00000000D+00
 0.00000000D+00 0.14462652D-01 0.00000000D+00 0.00000000D+00 0.00000000D+00
 0.00000000D+00 0.75223876D+00 0.00000000D+00 0.00000000D+00 0.00000000D+00
 0.00000000D+00 0.00000000D+00 0.00000000D+00 0.25940857D+00 0.00000000D+00
 0.17820134D+00 0.00000000D+00 0.00000000D+00 0.79694063D-01 0.00000000D+00
 0.00000000D+00 0.88870979D-01 0.00000000D+00 0.00000000D+00 0.00000000D+00
 0.00000000D+00 0.00000000D+00 0.00000000D+00 0.00000000D+00-0.32191543D-01
 0.00000000D+00 0.00000000D+00-0.16345208D-01 0.00000000D+00 0.00000000D+00
-0.26484316D+00 0.00000000D+00 0.00000000D+00 0.00000000D+00 0.00000000D+00
 0.00000000D+00 0.00000000D+00-0.36046401D-02 0.00000000D+00 0.00000000D+00
 0.00000000D+00 0.00000000D+00 0.00000000D+00-0.42955285D-01 0.00000000D+00
 0.25843910D-01 0.00000000D+00 0.00000000D+00 0.11557748D-01 0.00000000D+00
 0.00000000D+00 0.14462652D-01 0.00000000D+00 0.00000000D+00 0.00000000D+00
 0.00000000D+00 0.75223876D+00 0.00000000D+00 0.00000000D+00 0.00000000D+00
 0.00000000D+00 0.00000000D+00 0.00000000D+00-0.25940857D+00 0.00000000D+00
 0.17820134D+00 0.00000000D+00 0.00000000D+00 0.79694063D-01 0.00000000D+00
 0.00000000D+00 0.88870979D-01 0.00000000D+00 0.00000000D+00 0.00000000D+00
 0.00000000D+00 0.00000000D+00 0.00000000D+00 0.31211827D-02 0.00000000D+00
 0.00000000D+00-0.44615354D-01 0.00000000D+00 0.00000000D+00 0.00000000D+00
 0.00000000D+00 0.00000000D+00 0.00000000D+00-0.11984603D-03 0.00000000D+00
 0.00000000D+00-0.39605533D+00 0.00000000D+00 0.00000000D+00 0.00000000D+00
 0.00000000D+00 0.00000000D+00 0.00000000D+00-0.66535800D-01 0.00000000D+00
   11 Alpha MO OE= 0.91981386D-01
 0.00000000D+00 0.00000000D+00 0.00000000D+00 0.00000000D+00 0.31211827D-02
 0.00000000D+00 0.00000000D+00-0.44615354D-01 0.00000000D+00 0.00000000D+00
 0.00000000D+00 0.00000000D+00 0.00000000D+00 0.00000000D+00 0.11984603D-03
 0.00000000D+00 0.00000000D+00-0.39605533D+00 0.00000000D+00 0.00000000D+00
 0.00000000D+00 0.00000000D+00 0.00000000D+00 0.00000000D+00 0.66535800D-01
 0.00000000D+00 0.00000000D+00 0.00000000D+00 0.00000000D+00 0.00000000D+00
-0.32191543D-01 0.00000000D+00 0.00000000D+00-0.16345208D-01 0.00000000D+00
 0.00000000D+00-0.26484316D+00 0.00000000D+00 0.00000000D+00 0.00000000D+00
 0.00000000D+00 0.00000000D+00 0.00000000D+00 0.36046401D-02 0.00000000D+00
 0.00000000D+00 0.00000000D+00 0.00000000D+00 0.00000000D+00 0.42955285D-01
 0.00000000D+00 0.25843910D-01 0.00000000D+00 0.00000000D+00 0.11557748D-01
 0.00000000D+00 0.00000000D+00 0.14462652D-01 0.00000000D+00 0.00000000D+00
 0.00000000D+00 0.00000000D+00 0.75223876D+00 0.00000000D+00 0.00000000D+00
 0.00000000D+00 0.00000000D+00 0.00000000D+00 0.00000000D+00 0.25940857D+00
 0.00000000D+00 0.17820134D+00 0.00000000D+00 0.00000000D+00 0.79694063D-01
 0.00000000D+00 0.00000000D+00 0.88870979D-01 0.00000000D+00 0.00000000D+00
 0.00000000D+00 0.00000000D+00 0.00000000D+00 0.00000000D+00 0.00000000D+00
-0.32191543D-01 0.00000000D+00 0.00000000D+00-0.16345208D-01 0.00000000D+00
 0.00000000D+00-0.26484316D+00 0.00000000D+00 0.00000000D+00 0.00000000D+00
 0.00000000D+00 0.00000000D+00 0.00000000D+00-0.36046401D-02 0.00000000D+00
 0.00000000D+00 0.00000000D+00 0.00000000D+00 0.00000000D+00-0.42955285D-01
 0.00000000D+00 0.25843910D-01 0.00000000D+00 0.00000000D+00 0.11557748D-01
 0.00000000D+00 0.00000000D+00 0.14462652D-01 0.00000000D+00 0.00000000D+00
 0.00000000D+00 0.00000000D+00 0.75223876D+00 0.00000000D+00 0.00000000D+00
 0.00000000D+00 0.00000000D+00 0.00000000D+00 0.00000000D+00-0.25940857D+00
 0.00000000D+00 0.17820134D+00 0.00000000D+00 0.00000000D+00 0.79694063D-01
 0.00000000D+00 0.00000000D+00 0.88870979D-01 0.00000000D+00 0.00000000D+00
 0.00000000D+00 0.00000000D+00 0.00000000D+00 0.00000000D+00 0.31211827D-02
 0.00000000D+00 0.00000000D+00-0.44615354D-01 0.00000000D+00 0.00000000D+00
 0.00000000D+00 0.00000000D+00 0.00000000D+00 0.00000000D+00-0.11984603D-03
 0.00000000D+00 0.00000000D+00-0.39605533D+00 0.00000000D+00 0.00000000D+00
 0.00000000D+00 0.00000000D+00 0.00000000D+00 0.00000000D+00-0.66535800D-01
   12 Alpha MO OE= 0.92694965D-01
 0.00000000D+00 0.00000000D+00 0.00000000D+00 0.61286207D-02 0.00000000D+00
 0.00000000D+00-0.44410327D-01 0.00000000D+00 0.00000000D+00 0.00000000D+00
 0.00000000D+00 0.00000000D+00 0.00000000D+00 0.89032769D-03 0.00000000D+00
 0.00000000D+00 0.65491582D+00 0.00000000D+00 0.00000000D+00 0.00000000D+00
 0.00000000D+00 0.00000000D+00 0.00000000D+00 0.31587776D-01 0.00000000D+00
 0.00000000D+00 0.00000000D+00 0.00000000D+00 0.00000000D+00 0.47714668D-01
 0.00000000D+00 0.00000000D+00 0.93792608D-01 0.00000000D+00 0.00000000D+00
 0.26253165D+01 0.00000000D+00 0.00000000D+00 0.00000000D+00 0.00000000D+00
 0.00000000D+00 0.00000000D+00 0.65483187D-02 0.00000000D+00 0.00000000D+00
 0.00000000D+00 0.00000000D+00 0.00000000D+00-0.56048643D-01 0.00000000D+00
-0.15460501D-02 0.00000000D+00 0.00000000D+00-0.69141463D-03 0.00000000D+00
 0.00000000D+00 0.17671674D-02 0.00000000D+00 0.00000000D+00 0.00000000D+00
 0.00000000D+00 0.29308698D+01 0.00000000D+00 0.00000000D+00 0.00000000D+00
 0.00000000D+00 0.00000000D+00 0.00000000D+00-0.16691620D+01 0.00000000D+00
-0.13135303D+00 0.00000000D+00 0.00000000D+00-0.58742863D-01 0.00000000D+00
 0.00000000D+00 0.64977912D-01 0.00000000D+00 0.00000000D+00 0.00000000D+00
 0.00000000D+00 0.00000000D+00 0.00000000D+00 0.00000000D+00-0.47714668D-01
 0.00000000D+00 0.00000000D+00-0.93792608D-01 0.00000000D+00 0.00000000D+00
-0.26253165D+01 0.00000000D+00 0.00000000D+00 0.00000000D+00 0.00000000D+00
 0.00000000D+00 0.00000000D+00 0.65483187D-02 0.00000000D+00 0.00000000D+00
 0.00000000D+00 0.00000000D+00 0.00000000D+00-0.56048643D-01 0.00000000D+00
 0.15460501D-02 0.00000000D+00 0.00000000D+00 0.69141463D-03 0.00000000D+00
 0.00000000D+00-0.17671674D-02 0.00000000D+00 0.00000000D+00 0.00000000D+00
 0.00000000D+00-0.29308698D+01 0.00000000D+00 0.00000000D+00 0.00000000D+00
 0.00000000D+00 0.00000000D+00 0.00000000D+00-0.16691620D+01 0.00000000D+00
 0.13135303D+00 0.00000000D+00 0.00000000D+00 0.58742863D-01 0.00000000D+00
 0.00000000D+00-0.64977912D-01 0.00000000D+00 0.00000000D+00 0.00000000D+00
 0.00000000D+00 0.00000000D+00 0.00000000D+00-0.61286207D-02 0.00000000D+00
 0.00000000D+00 0.44410327D-01 0.00000000D+00 0.00000000D+00 0.00000000D+00
 0.00000000D+00 0.00000000D+00 0.00000000D+00 0.89032769D-03 0.00000000D+00
 0.00000000D+00-0.65491582D+00 0.00000000D+00 0.00000000D+00 0.00000000D+00
 0.00000000D+00 0.00000000D+00 0.00000000D+00 0.31587776D-01 0.00000000D+00
   13 Alpha MO OE= 0.92694965D-01
 0.00000000D+00 0.00000000D+00 0.00000000D+00 0.00000000D+00 0.61286207D-02
 0.00000000D+00 0.00000000D+00-0.44410327D-01 0.00000000D+00 0.00000000D+00
 0.00000000D+00 0.00000000D+00 0.00000000D+00 0.00000000D+00 0.89032769D-03
 0.00000000D+00 0.00000000D+00 0.65491582D+00 0.00000000D+00 0.00000000D+00
 0.00000000D+00 0.00000000D+00 0.00000000D+00 0.00000000D+00 0.31587776D-01
 0.00000000D+00 0.00000000D+00 0.00000000D+00 0.00000000D+00 0.00000000D+00
 0.47714668D-01 0.00000000D+00 0.00000000D+00 0.93792608D-01 0.00000000D+00
 0.00000000D+00 0.26253165D+01 0.00000000D+00 0.00000000D+00 0.00000000D+00
 0.00000000D+00 0.00000000D+00 0.00000000D+00 0.65483187D-02 0.00000000D+00
 0.00000000D+00 0.00000000D+00 0.00000000D+00 0.00000000D+00-0.56048643D-01
 0.00000000D+00-0.15460501D-02 0.00000000D+00 0.00000000D+00-0.69141463D-03
 0.00000000D+00 0.00000000D+00 0.17671674D-02 0.00000000D+00 0.00000000D+00
 0.00000000D+00 0.00000000D+00 0.29308698D+01 0.00000000D+00 0.00000000D+00
 0.00000000D+00 0.00000000D+00 0.00000000D+00 0.00000000D+00-0.16691620D+01
 0.00000000D+00-0.13135303D+00 0.00000000D+00 0.00000000D+00-0.58742863D-01
 0.00000000D+00 0.00000000D+00 0.64977912D-01 0.00000000D+00 0.00000000D+00
 0.00000000D+00 0.00000000D+00 0.00000000D+00 0.00000000D+00 0.00000000D+00
-0.47714668D-01 0.00000000D+00 0.00000000D+00-0.93792608D-01 0.00000000D+00
 0.00000000D+00-0.26253165D+01 0.00000000D+00 0.00000000D+00 0.00000000D+00
 0.00000000D+00 0.00000000D+00 0.00000000D+00 0.65483187D-02 0.00000000D+00
 0.00000000D+00 0.00000000D+00 0.00000000D+00 0.00000000D+00-0.56048643D-01
 0.00000000D+00 0.15460501D-02 0.00000000D+00 0.00000000D+00 0.69141463D-03
 0.00000000D+00 0.00000000D+00-0.17671674D-02 0.00000000D+00 0.00000000D+00
 0.00000000D+00 0.00000000D+00-0.29308698D+01 0.00000000D+00 0.00000000D+00
 0.00000000D+00 0.00000000D+00 0.00000000D+00 0.00000000D+00-0.16691620D+01
 0.00000000D+00 0.13135303D+00 0.00000000D+00 0.00000000D+00 0.58742863D-01
 0.00000000D+00 0.00000000D+00-0.64977912D-01 0.00000000D+00 0.00000000D+00
 0.00000000D+00 0.00000000D+00 0.00000000D+00 0.00000000D+00-0.61286207D-02
 0.00000000D+00 0.00000000D+00 0.44410327D-01 0.00000000D+00 0.00000000D+00
 0.00000000D+00 0.00000000D+00 0.00000000D+00 0.00000000D+00 0.89032769D-03
 0.00000000D+00 0.00000000D+00-0.65491582D+00 0.00000000D+00 0.00000000D+00
 0.00000000D+00 0.00000000D+00 0.00000000D+00 0.00000000D+00 0.31587776D-01
   14 Alpha MO OE= 0.10281467D+00
-0.31743601D-01-0.15369107D+00 0.17522777D+02 0.00000000D+00 0.00000000D+00
-0.15601071D-02 0.00000000D+00 0.00000000D+00 0.90675012D-01-0.11234656D-01
-0.11234656D-01-0.17165006D-01 0.00000000D+00 0.00000000D+00 0.00000000D+00
 0.43142102D+00 0.00000000D+00 0.00000000D+00-0.26132198D+01-0.10516995D+00
-0.10516995D+00-0.23738899D+00 0.00000000D+00 0.00000000D+00 0.00000000D+00
 0.80776757D-02 0.85906127D-05-0.23634265D-01-0.95927643D+01 0.00000000D+00
 0.00000000D+00 0.39445728D-01 0.00000000D+00 0.00000000D+00 0.18730252D+00
 0.00000000D+00 0.00000000D+00-0.35713667D+01-0.19833178D-02-0.19833178D-02
-0.99747565D-02 0.00000000D+00 0.00000000D+00 0.00000000D+00-0.34513754D-01
-0.34513754D-01 0.11320822D+00 0.00000000D+00 0.00000000D+00 0.00000000D+00
 0.00000000D+00 0.00000000D+00 0.26079978D-01 0.00000000D+00 0.00000000D+00
 0.34712422D-02 0.00000000D+00 0.00000000D+00 0.34712422D-02 0.00000000D+00
 0.51153957D+00 0.00000000D+00 0.00000000D+00-0.29168758D+01-0.12602271D+01
-0.12602271D+01-0.69285613D+01 0.00000000D+00 0.00000000D+00 0.00000000D+00
 0.00000000D+00 0.00000000D+00-0.57124681D-01 0.00000000D+00 0.00000000D+00
 0.98447489D-01 0.00000000D+00 0.00000000D+00 0.98447489D-01 0.00000000D+00
 0.80776757D-02 0.85906127D-05-0.23634265D-01-0.95927643D+01 0.00000000D+00
 0.00000000D+00-0.39445728D-01 0.00000000D+00 0.00000000D+00-0.18730252D+00
 0.00000000D+00 0.00000000D+00 0.35713667D+01-0.19833178D-02-0.19833178D-02
-0.99747565D-02 0.00000000D+00 0.00000000D+00 0.00000000D+00-0.34513754D-01
-0.34513754D-01 0.11320822D+00 0.00000000D+00 0.00000000D+00 0.00000000D+00
 0.00000000D+00 0.00000000D+00-0.26079978D-01 0.00000000D+00 0.00000000D+00
-0.34712422D-02 0.00000000D+00 0.00000000D+00-0.34712422D-02 0.00000000D+00
 0.51153957D+00 0.00000000D+00 0.00000000D+00 0.29168758D+01-0.12602271D+01
-0.12602271D+01-0.69285613D+01 0.00000000D+00 0.00000000D+00 0.00000000D+00
 0.00000000D+00 0.00000000D+00 0.57124681D-01 0.00000000D+00 0.00000000D+00
-0.98447489D-01 0.00000000D+00 0.00000000D+00-0.98447489D-01 0.00000000D+00
-0.31743601D-01-0.15369107D+00 0.17522777D+02 0.00000000D+00 0.00000000D+00
 0.15601071D-02 0.00000000D+00 0.00000000D+00-0.90675012D-01-0.11234656D-01
-0.11234656D-01-0.17165006D-01 0.00000000D+00 0.00000000D+00 0.00000000D+00
 0.43142102D+00 0.00000000D+00 0.00000000D+00 0.26132198D+01-0.10516995D+00
-0.10516995D+00-0.23738899D+00 0.00000000D+00 0.00000000D+00 0.00000000D+00
   15 Alpha MO OE= 0.10961184D+00
-0.17721666D-01-0.41459617D+00 0.53299348D+01 0.00000000D+00 0.00000000D+00
-0.30092149D-02 0.00000000D+00 0.00000000D+00-0.41953691D-01-0.99947698D-02
-0.99947698D-02-0.14675234D-01 0.00000000D+00 0.00000000D+00 0.00000000D+00
 0.12100741D+02 0.00000000D+00 0.00000000D+00-0.12845337D+00-0.30148432D+00
-0.30148432D+00-0.32547303D+00 0.00000000D+00 0.00000000D+00 0.00000000D+00
-0.27299870D-01 0.81642612D-01 0.68466216D-02-0.26713512D+02 0.00000000D+00
 0.00000000D+00 0.22252654D-01 0.00000000D+00 0.00000000D+00 0.11342818D+00
 0.00000000D+00 0.00000000D+00 0.60969814D+01-0.31385783D-02-0.31385783D-02
-0.43910587D-02 0.00000000D+00 0.00000000D+00 0.00000000D+00 0.51256651D-01
 0.51256651D-01-0.26943109D+00 0.00000000D+00 0.00000000D+00 0.00000000D+00
 0.00000000D+00 0.00000000D+00 0.10418425D-01 0.00000000D+00 0.00000000D+00
-0.33868949D-02 0.00000000D+00 0.00000000D+00-0.33868949D-02 0.00000000D+00
 0.69325764D+02 0.00000000D+00 0.00000000D+00-0.19543575D+02-0.44078100D+01
-0.44078100D+01-0.70813320D+01 0.00000000D+00 0.00000000D+00 0.00000000D+00
 0.00000000D+00 0.00000000D+00-0.16149788D+00 0.00000000D+00 0.00000000D+00
-0.34387870D-01 0.00000000D+00 0.00000000D+00-0.34387870D-01 0.00000000D+00
 0.27299870D-01-0.81642612D-01-0.68466216D-02 0.26713512D+02 0.00000000D+00
 0.00000000D+00 0.22252654D-01 0.00000000D+00 0.00000000D+00 0.11342818D+00
 0.00000000D+00 0.00000000D+00 0.60969814D+01 0.31385783D-02 0.31385783D-02
 0.43910587D-02 0.00000000D+00 0.00000000D+00 0.00000000D+00-0.51256651D-01
-0.51256651D-01 0.26943109D+00 0.00000000D+00 0.00000000D+00 0.00000000D+00
 0.00000000D+00 0.00000000D+00 0.10418425D-01 0.00000000D+00 0.00000000D+00
-0.33868949D-02 0.00000000D+00 0.00000000D+00-0.33868949D-02 0.00000000D+00
-0.69325764D+02 0.00000000D+00 0.00000000D+00-0.19543575D+02 0.44078100D+01
 0.44078100D+01 0.70813320D+01 0.00000000D+00 0.00000000D+00 0.00000000D+00
 0.00000000D+00 0.00000000D+00-0.16149788D+00 0.00000000D+00 0.00000000D+00
-0.34387870D-01 0.00000000D+00 0.00000000D+00-0.34387870D-01 0.00000000D+00
 0.17721666D-01 0.41459617D+00-0.53299348D+01 0.00000000D+00 0.00000000D+00
-0.30092149D-02 0.00000000D+00 0.00000000D+00-0.41953691D-01 0.99947698D-02
 0.99947698D-02 0.14675234D-01 0.00000000D+00 0.00000000D+00 0.00000000D+00
-0.12100741D+02 0.00000000D+00 0.00000000D+00-0.12845337D+00 0.30148432D+00
 0.30148432D+00 0.32547303D+00 0.00000000D+00 0.00000000D+00 0.00000000D+00
   16 Alpha MO OE= 0.13210411D+00
-0.54397272D-02 0.17160106D+01 0.60540100D+02 0.00000000D+00 0.00000000D+00
 0.80576090D-02 0.00000000D+00 0.00000000D+00 0.15833154D+00 0.12354831D-01
 0.12354831D-01 0.29914300D-02 0.00000000D+00 0.00000000D+00 0.00000000D+00
-0.37509018D+01 0.00000000D+00 0.00000000D+00-0.87204210D+01 0.64534980D+00
 0.64534980D+00 0.19448887D+00 0.00000000D+00 0.00000000D+00 0.00000000D+00
 0.26397086D-01-0.61219363D-01-0.62389321D-02-0.32683726D+02 0.00000000D+00
 0.00000000D+00-0.27417281D-01 0.00000000D+00 0.00000000D+00-0.52036589D-01
 0.00000000D+00 0.00000000D+00-0.93927470D+01 0.23858578D-02 0.23858578D-02
-0.93066218D-02 0.00000000D+00 0.00000000D+00 0.00000000D+00 0.29590926D-01
 0.29590926D-01 0.45519821D+00 0.00000000D+00 0.00000000D+00 0.00000000D+00
 0.00000000D+00 0.00000000D+00 0.16962413D-01 0.00000000D+00 0.00000000D+00
 0.45906684D-03 0.00000000D+00 0.00000000D+00 0.45906684D-03 0.00000000D+00
 0.98906661D+01 0.00000000D+00 0.00000000D+00 0.33471289D+01-0.33901192D+01
-0.33901192D+01-0.30184467D+02 0.00000000D+00 0.00000000D+00 0.00000000D+00
 0.00000000D+00 0.00000000D+00-0.92129654D+00 0.00000000D+00 0.00000000D+00
-0.43321902D-02 0.00000000D+00 0.00000000D+00-0.43321902D-02 0.00000000D+00
 0.26397086D-01-0.61219363D-01-0.62389321D-02-0.32683726D+02 0.00000000D+00
 0.00000000D+00 0.27417281D-01 0.00000000D+00 0.00000000D+00 0.52036589D-01
 0.00000000D+00 0.00000000D+00 0.93927470D+01 0.23858578D-02 0.23858578D-02
-0.93066218D-02 0.00000000D+00 0.00000000D+00 0.00000000D+00 0.29590926D-01
 0.29590926D-01 0.45519821D+00 0.00000000D+00 0.00000000D+00 0.00000000D+00
 0.00000000D+00 0.00000000D+00-0.16962413D-01 0.00000000D+00 0.00000000D+00
-0.45906684D-03 0.00000000D+00 0.00000000D+00-0.45906684D-03 0.00000000D+00
 0.98906661D+01 0.00000000D+00 0.00000000D+00-0.33471289D+01-0.33901192D+01
-0.33901192D+01-0.30184467D+02 0.00000000D+00 0.00000000D+00 0.00000000D+00
 0.00000000D+00 0.00000000D+00 0.92129654D+00 0.00000000D+00 0.00000000D+00
 0.43321902D-02 0.00000000D+00 0.00000000D+00 0.43321902D-02 0.00000000D+00
-0.54397272D-02 0.17160106D+01 0.60540100D+02 0.00000000D+00 0.00000000D+00
-0.80576090D-02 0.00000000D+00 0.00000000D+00-0.15833154D+00 0.12354831D-01
 0.12354831D-01 0.29914300D-02 0.00000000D+00 0.00000000D+00 0.00000000D+00
-0.37509018D+01 0.00000000D+00 0.00000000D+00 0.87204210D+01 0.64534980D+00
 0.64534980D+00 0.19448887D+00 0.00000000D+00 0.00000000D+00 0.00000000D+00
   17 Alpha MO OE= 0.19031401D+00
 0.00000000D+00 0.00000000D+00 0.00000000D+00-0.54769713D-02 0.00000000D+00
 0.00000000D+00-0.12260442D+00 0.00000000D+00 0.00000000D+00 0.00000000D+00
 0.00000000D+00 0.00000000D+00 0.00000000D+00 0.47486082D-02 0.00000000D+00
 0.00000000D+00 0.78722789D+00 0.00000000D+00 0.00000000D+00 0.00000000D+00
 0.00000000D+00 0.00000000D+00 0.00000000D+00 0.60129877D-01 0.00000000D+00
 0.00000000D+00 0.00000000D+00 0.00000000D+00 0.00000000D+00-0.16922776D+00
 0.00000000D+00 0.00000000D+00-0.15649277D+00 0.00000000D+00 0.00000000D+00
 0.38581522D+01 0.00000000D+00 0.00000000D+00 0.00000000D+00 0.00000000D+00
 0.00000000D+00 0.00000000D+00-0.14584571D-01 0.00000000D+00 0.00000000D+00
 0.00000000D+00 0.00000000D+00 0.00000000D+00-0.15813217D+00 0.00000000D+00
-0.17202756D-01 0.00000000D+00 0.00000000D+00-0.76933066D-02 0.00000000D+00
 0.00000000D+00-0.31361135D-02 0.00000000D+00 0.00000000D+00 0.00000000D+00
 0.00000000D+00 0.24400846D+01 0.00000000D+00 0.00000000D+00 0.00000000D+00
 0.00000000D+00 0.00000000D+00 0.00000000D+00-0.27394515D+01 0.00000000D+00
-0.22481652D+00 0.00000000D+00 0.00000000D+00-0.10054101D+00 0.00000000D+00
 0.00000000D+00 0.10077204D+00 0.00000000D+00 0.00000000D+00 0.00000000D+00
 0.00000000D+00 0.00000000D+00 0.00000000D+00 0.00000000D+00 0.16922776D+00
 0.00000000D+00 0.00000000D+00 0.15649277D+00 0.00000000D+00 0.00000000D+00
-0.38581522D+01 0.00000000D+00 0.00000000D+00 0.00000000D+00 0.00000000D+00
 0.00000000D+00 0.00000000D+00-0.14584571D-01 0.00000000D+00 0.00000000D+00
 0.00000000D+00 0.00000000D+00 0.00000000D+00-0.15813217D+00 0.00000000D+00
 0.17202756D-01 0.00000000D+00 0.00000000D+00 0.76933066D-02 0.00000000D+00
 0.00000000D+00 0.31361135D-02 0.00000000D+00 0.00000000D+00 0.00000000D+00
 0.00000000D+00-0.24400846D+01 0.00000000D+00 0.00000000D+00 0.00000000D+00
 0.00000000D+00 0.00000000D+00 0.00000000D+00-0.27394515D+01 0.00000000D+00
 0.22481652D+00 0.00000000D+00 0.00000000D+00 0.10054101D+00 0.00000000D+00
 0.00000000D+00-0.10077204D+00 0.00000000D+00 0.00000000D+00 0.00000000D+00
 0.00000000D+00 0.00000000D+00 0.00000000D+00 0.54769713D-02 0.00000000D+00
 0.00000000D+00 0.12260442D+00 0.00000000D+00 0.00000000D+00 0.00000000D+00
 0.00000000D+00 0.00000000D+00 0.00000000D+00 0.47486082D-02 0.00000000D+00
 0.00000000D+00-0.78722789D+00 0.00000000D+00 0.00000000D+00 0.00000000D+00
 0.00000000D+00 0.00000000D+00 0.00000000D+00 0.60129877D-01 0.00000000D+00
   18 Alpha MO OE= 0.19031401D+00
 0.00000000D+00 0.00000000D+00 0.00000000D+00 0.00000000D+00-0.54769713D-02
 0.00000000D+00 0.00000000D+00-0.12260442D+00 0.00000000D+00 0.00000000D+00
 0.00000000D+00 0.00000000D+00 0.00000000D+00 0.00000000D+00 0.47486082D-02
 0.00000000D+00 0.00000000D+00 0.78722789D+00 0.00000000D+00 0.00000000D+00
 0.00000000D+00 0.00000000D+00 0.00000000D+00 0.00000000D+00 0.60129877D-01
 0.00000000D+00 0.00000000D+00 0.00000000D+00 0.00000000D+00 0.00000000D+00
-0.16922776D+00 0.00000000D+00 0.00000000D+00-0.15649277D+00 0.00000000D+00
 0.00000000D+00 0.38581522D+01 0.00000000D+00 0.00000000D+00 0.00000000D+00
 0.00000000D+00 0.00000000D+00 0.00000000D+00-0.14584571D-01 0.00000000D+00
 0.00000000D+00 0.00000000D+00 0.00000000D+00 0.00000000D+00-0.15813217D+00
 0.00000000D+00-0.17202756D-01 0.00000000D+00 0.00000000D+00-0.76933066D-02
 0.00000000D+00 0.00000000D+00-0.31361135D-02 0.00000000D+00 0.00000000D+00
 0.00000000D+00 0.00000000D+00 0.24400846D+01 0.00000000D+00 0.00000000D+00
 0.00000000D+00 0.00000000D+00 0.00000000D+00 0.00000000D+00-0.27394515D+01
 0.00000000D+00-0.22481652D+00 0.00000000D+00 0.00000000D+00-0.10054101D+00
 0.00000000D+00 0.00000000D+00 0.10077204D+00 0.00000000D+00 0.00000000D+00
 0.00000000D+00 0.00000000D+00 0.00000000D+00 0.00000000D+00 0.00000000D+00
 0.16922776D+00 0.00000000D+00 0.00000000D+00 0.15649277D+00 0.00000000D+00
 0.00000000D+00-0.38581522D+01 0.00000000D+00 0.00000000D+00 0.00000000D+00
 0.00000000D+00 0.00000000D+00 0.00000000D+00-0.14584571D-01 0.00000000D+00
 0.00000000D+00 0.00000000D+00 0.00000000D+00 0.00000000D+00-0.15813217D+00
 0.00000000D+00 0.17202756D-01 0.00000000D+00 0.00000000D+00 0.76933066D-02
 0.00000000D+00 0.00000000D+00 0.31361135D-02 0.00000000D+00 0.00000000D+00
 0.00000000D+00 0.00000000D+00-0.24400846D+01 0.00000000D+00 0.00000000D+00
 0.00000000D+00 0.00000000D+00 0.00000000D+00 0.00000000D+00-0.27394515D+01
 0.00000000D+00 0.22481652D+00 0.00000000D+00 0.00000000D+00 0.10054101D+00
 0.00000000D+00 0.00000000D+00-0.10077204D+00 0.00000000D+00 0.00000000D+00
 0.00000000D+00 0.00000000D+00 0.00000000D+00 0.00000000D+00 0.54769713D-02
 0.00000000D+00 0.00000000D+00 0.12260442D+00 0.00000000D+00 0.00000000D+00
 0.00000000D+00 0.00000000D+00 0.00000000D+00 0.00000000D+00 0.47486082D-02
 0.00000000D+00 0.00000000D+00-0.78722789D+00 0.00000000D+00 0.00000000D+00
 0.00000000D+00 0.00000000D+00 0.00000000D+00 0.00000000D+00 0.60129877D-01
   19 Alpha MO OE= 0.19287003D+00
 0.37871303D-01 0.54765899D+00-0.91775123D+02 0.00000000D+00 0.00000000D+00
-0.15043187D-01 0.00000000D+00 0.00000000D+00 0.66025412D+00 0.47689651D-02
 0.47689651D-02 0.35123432D-02 0.00000000D+00 0.00000000D+00 0.00000000D+00
-0.65132827D+01 0.00000000D+00 0.00000000D+00 0.17256812D+02 0.90034462D+00
 0.90034462D+00 0.50181047D+00 0.00000000D+00 0.00000000D+00 0.00000000D+00
 0.90690182D-02 0.22836487D-01-0.32076184D+00 0.17409765D+03 0.00000000D+00
 0.00000000D+00 0.30050463D-02 0.00000000D+00 0.00000000D+00-0.29189184D+01
 0.00000000D+00 0.00000000D+00 0.28038285D+01-0.54377478D-01-0.54377478D-01
-0.11124866D-01 0.00000000D+00 0.00000000D+00 0.00000000D+00-0.10881244D+01
-0.10881244D+01 0.12090755D+01 0.00000000D+00 0.00000000D+00 0.00000000D+00
 0.00000000D+00 0.00000000D+00-0.10415482D+00 0.00000000D+00 0.00000000D+00
-0.84198484D-02 0.00000000D+00 0.00000000D+00-0.84198484D-02 0.00000000D+00
-0.10359725D+03 0.00000000D+00 0.00000000D+00 0.18745387D+02 0.21972861D+02
 0.21972861D+02 0.46068343D+02 0.00000000D+00 0.00000000D+00 0.00000000D+00
 0.00000000D+00 0.00000000D+00-0.22904436D+01 0.00000000D+00 0.00000000D+00
-0.11270190D+01 0.00000000D+00 0.00000000D+00-0.11270190D+01 0.00000000D+00
-0.90690182D-02-0.22836487D-01 0.32076184D+00-0.17409765D+03 0.00000000D+00
 0.00000000D+00 0.30050463D-02 0.00000000D+00 0.00000000D+00-0.29189184D+01
 0.00000000D+00 0.00000000D+00 0.28038285D+01 0.54377478D-01 0.54377478D-01
 0.11124866D-01 0.00000000D+00 0.00000000D+00 0.00000000D+00 0.10881244D+01
 0.10881244D+01-0.12090755D+01 0.00000000D+00 0.00000000D+00 0.00000000D+00
 0.00000000D+00 0.00000000D+00-0.10415482D+00 0.00000000D+00 0.00000000D+00
-0.84198484D-02 0.00000000D+00 0.00000000D+00-0.84198484D-02 0.00000000D+00
 0.10359725D+03 0.00000000D+00 0.00000000D+00 0.18745387D+02-0.21972861D+02
-0.21972861D+02-0.46068343D+02 0.00000000D+00 0.00000000D+00 0.00000000D+00
 0.00000000D+00 0.00000000D+00-0.22904436D+01 0.00000000D+00 0.00000000D+00
-0.11270190D+01 0.00000000D+00 0.00000000D+00-0.11270190D+01 0.00000000D+00
-0.37871303D-01-0.54765899D+00 0.91775123D+02 0.00000000D+00 0.00000000D+00
-0.15043187D-01 0.00000000D+00 0.00000000D+00 0.66025412D+00-0.47689651D-02
-0.47689651D-02-0.35123432D-02 0.00000000D+00 0.00000000D+00 0.00000000D+00
 0.65132827D+01 0.00000000D+00 0.00000000D+00 0.17256812D+02-0.90034462D+00
-0.90034462D+00-0.50181047D+00 0.00000000D+00 0.00000000D+00 0.00000000D+00
   20 Alpha MO OE= 0.25499945D+00
-0.67335012D-02-0.42859581D+00-0.14313466D+02 0.00000000D+00 0.00000000D+00
 0.71886279D-02 0.00000000D+00 0.00000000D+00 0.27252722D-01-0.17066569D-01
-0.17066569D-01-0.26165743D-01 0.00000000D+00 0.00000000D+00 0.00000000D+00
 0.11750992D+02 0.00000000D+00 0.00000000D+00 0.51732166D+01-0.41441447D+00
-0.41441447D+00-0.53435778D+00 0.00000000D+00 0.00000000D+00 0.00000000D+00
 0.59687785D-01-0.13663687D+00-0.10208706D+00-0.18057209D+02 0.00000000D+00
 0.00000000D+00-0.41834836D-01 0.00000000D+00 0.00000000D+00-0.81126203D+00
 0.00000000D+00 0.00000000D+00 0.17924140D+02-0.17872128D-01-0.17872128D-01
-0.10517215D-02 0.00000000D+00 0.00000000D+00 0.00000000D+00-0.70254048D-01
-0.70254048D-01-0.33770985D+00 0.00000000D+00 0.00000000D+00 0.00000000D+00
 0.00000000D+00 0.00000000D+00-0.11370037D-01 0.00000000D+00 0.00000000D+00
-0.95864344D-02 0.00000000D+00 0.00000000D+00-0.95864344D-02 0.00000000D+00
 0.93784518D+02 0.00000000D+00 0.00000000D+00-0.23790573D+02-0.36609513D+01
-0.36609513D+01-0.38695558D+01 0.00000000D+00 0.00000000D+00 0.00000000D+00
 0.00000000D+00 0.00000000D+00-0.11703418D+01 0.00000000D+00 0.00000000D+00
-0.43620034D+00 0.00000000D+00 0.00000000D+00-0.43620034D+00 0.00000000D+00
-0.59687785D-01 0.13663687D+00 0.10208706D+00 0.18057209D+02 0.00000000D+00
 0.00000000D+00-0.41834836D-01 0.00000000D+00 0.00000000D+00-0.81126203D+00
 0.00000000D+00 0.00000000D+00 0.17924140D+02 0.17872128D-01 0.17872128D-01
 0.10517215D-02 0.00000000D+00 0.00000000D+00 0.00000000D+00 0.70254048D-01
 0.70254048D-01 0.33770985D+00 0.00000000D+00 0.00000000D+00 0.00000000D+00
 0.00000000D+00 0.00000000D+00-0.11370037D-01 0.00000000D+00 0.00000000D+00
-0.95864344D-02 0.00000000D+00 0.00000000D+00-0.95864344D-02 0.00000000D+00
-0.93784518D+02 0.00000000D+00 0.00000000D+00-0.23790573D+02 0.36609513D+01
 0.36609513D+01 0.38695558D+01 0.00000000D+00 0.00000000D+00 0.00000000D+00
 0.00000000D+00 0.00000000D+00-0.11703418D+01 0.00000000D+00 0.00000000D+00
-0.43620034D+00 0.00000000D+00 0.00000000D+00-0.43620034D+00 0.00000000D+00
 0.67335012D-02 0.42859581D+00 0.14313466D+02 0.00000000D+00 0.00000000D+00
 0.71886279D-02 0.00000000D+00 0.00000000D+00 0.27252722D-01 0.17066569D-01
 0.17066569D-01 0.26165743D-01 0.00000000D+00 0.00000000D+00 0.00000000D+00
-0.11750992D+02 0.00000000D+00 0.00000000D+00 0.51732166D+01 0.41441447D+00
 0.41441447D+00 0.53435778D+00 0.00000000D+00 0.00000000D+00 0.00000000D+00
   21 Alpha MO OE= 0.26606703D+00
-0.30443540D-02-0.11634101D+01 0.12989822D+02 0.00000000D+00 0.00000000D+00
 0.71140748D-02 0.00000000D+00 0.00000000D+00 0.36939783D+00-0.19073486D-01
-0.19073486D-01-0.44958678D-01 0.00000000D+00 0.00000000D+00 0.00000000D+00
 0.66725639D+00 0.00000000D+00 0.00000000D+00-0.21989467D+00-0.37327191D+00
-0.37327191D+00-0.62838363D+00 0.00000000D+00 0.00000000D+00 0.00000000D+00
-0.21691679D-02 0.45892434D-01-0.88955871D-01-0.37889177D+01 0.00000000D+00
 0.00000000D+00-0.92748409D-01 0.00000000D+00 0.00000000D+00 0.29956761D+00
 0.00000000D+00 0.00000000D+00-0.19576739D+01-0.28073182D-01-0.28073182D-01
 0.99058934D-02 0.00000000D+00 0.00000000D+00 0.00000000D+00-0.24375890D+00
-0.24375890D+00 0.17585409D+00 0.00000000D+00 0.00000000D+00 0.00000000D+00
 0.00000000D+00 0.00000000D+00 0.43906154D-01 0.00000000D+00 0.00000000D+00
 0.42373810D-02 0.00000000D+00 0.00000000D+00 0.42373810D-02 0.00000000D+00
-0.52315571D+00 0.00000000D+00 0.00000000D+00-0.33196597D+01-0.12128437D+01
-0.12128437D+01-0.53895312D+01 0.00000000D+00 0.00000000D+00 0.00000000D+00
 0.00000000D+00 0.00000000D+00 0.82638735D-01 0.00000000D+00 0.00000000D+00
 0.11496404D+00 0.00000000D+00 0.00000000D+00 0.11496404D+00 0.00000000D+00
-0.21691679D-02 0.45892434D-01-0.88955871D-01-0.37889177D+01 0.00000000D+00
 0.00000000D+00 0.92748409D-01 0.00000000D+00 0.00000000D+00-0.29956761D+00
 0.00000000D+00 0.00000000D+00 0.19576739D+01-0.28073182D-01-0.28073182D-01
 0.99058934D-02 0.00000000D+00 0.00000000D+00 0.00000000D+00-0.24375890D+00
-0.24375890D+00 0.17585409D+00 0.00000000D+00 0.00000000D+00 0.00000000D+00
 0.00000000D+00 0.00000000D+00-0.43906154D-01 0.00000000D+00 0.00000000D+00
-0.42373810D-02 0.00000000D+00 0.00000000D+00-0.42373810D-02 0.00000000D+00
-0.52315571D+00 0.00000000D+00 0.00000000D+00 0.33196597D+01-0.12128437D+01
-0.12128437D+01-0.53895312D+01 0.00000000D+00 0.00000000D+00 0.00000000D+00
 0.00000000D+00 0.00000000D+00-0.82638735D-01 0.00000000D+00 0.00000000D+00
-0.11496404D+00 0.00000000D+00 0.00000000D+00-0.11496404D+00 0.00000000D+00
-0.30443540D-02-0.11634101D+01 0.12989822D+02 0.00000000D+00 0.00000000D+00
-0.71140748D-02 0.00000000D+00 0.00000000D+00-0.36939783D+00-0.19073486D-01
-0.19073486D-01-0.44958678D-01 0.00000000D+00 0.00000000D+00 0.00000000D+00
 0.66725639D+00 0.00000000D+00 0.00000000D+00 0.21989467D+00-0.37327191D+00
-0.37327191D+00-0.62838363D+00 0.00000000D+00 0.00000000D+00 0.00000000D+00
   22 Alpha MO OE= 0.27705617D+00
 0.00000000D+00 0.00000000D+00 0.00000000D+00 0.00000000D+00-0.16316402D-01
 0.00000000D+00 0.00000000D+00 0.40181881D+00 0.00000000D+00 0.00000000D+00
 0.00000000D+00 0.00000000D+00 0.00000000D+00 0.00000000D+00-0.32665665D-02
 0.00000000D+00 0.00000000D+00 0.34907620D+01 0.00000000D+00 0.00000000D+00
 0.00000000D+00 0.00000000D+00 0.00000000D+00 0.00000000D+00-0.39465348D+00
 0.00000000D+00 0.00000000D+00 0.00000000D+00 0.00000000D+00 0.00000000D+00
-0.31496596D-01 0.00000000D+00 0.00000000D+00-0.66809977D-01 0.00000000D+00
 0.00000000D+00-0.26637701D+01 0.00000000D+00 0.00000000D+00 0.00000000D+00
 0.00000000D+00 0.00000000D+00 0.00000000D+00 0.10984163D-01 0.00000000D+00
 0.00000000D+00 0.00000000D+00 0.00000000D+00 0.00000000D+00-0.23249228D+00
 0.00000000D+00 0.10803939D-01 0.00000000D+00 0.00000000D+00 0.48316684D-02
 0.00000000D+00 0.00000000D+00 0.24167853D-02 0.00000000D+00 0.00000000D+00
 0.00000000D+00 0.00000000D+00-0.55278692D+00 0.00000000D+00 0.00000000D+00
 0.00000000D+00 0.00000000D+00 0.00000000D+00 0.00000000D+00-0.16004993D+01
 0.00000000D+00 0.18627103D+00 0.00000000D+00 0.00000000D+00 0.83302936D-01
 0.00000000D+00 0.00000000D+00-0.32462073D+00 0.00000000D+00 0.00000000D+00
 0.00000000D+00 0.00000000D+00 0.00000000D+00 0.00000000D+00 0.00000000D+00
-0.31496596D-01 0.00000000D+00 0.00000000D+00-0.66809977D-01 0.00000000D+00
 0.00000000D+00-0.26637701D+01 0.00000000D+00 0.00000000D+00 0.00000000D+00
 0.00000000D+00 0.00000000D+00 0.00000000D+00-0.10984163D-01 0.00000000D+00
 0.00000000D+00 0.00000000D+00 0.00000000D+00 0.00000000D+00 0.23249228D+00
 0.00000000D+00 0.10803939D-01 0.00000000D+00 0.00000000D+00 0.48316684D-02
 0.00000000D+00 0.00000000D+00 0.24167853D-02 0.00000000D+00 0.00000000D+00
 0.00000000D+00 0.00000000D+00-0.55278692D+00 0.00000000D+00 0.00000000D+00
 0.00000000D+00 0.00000000D+00 0.00000000D+00 0.00000000D+00 0.16004993D+01
 0.00000000D+00 0.18627103D+00 0.00000000D+00 0.00000000D+00 0.83302936D-01
 0.00000000D+00 0.00000000D+00-0.32462073D+00 0.00000000D+00 0.00000000D+00
 0.00000000D+00 0.00000000D+00 0.00000000D+00 0.00000000D+00-0.16316402D-01
 0.00000000D+00 0.00000000D+00 0.40181881D+00 0.00000000D+00 0.00000000D+00
 0.00000000D+00 0.00000000D+00 0.00000000D+00 0.00000000D+00 0.32665665D-02
 0.00000000D+00 0.00000000D+00 0.34907620D+01 0.00000000D+00 0.00000000D+00
 0.00000000D+00 0.00000000D+00 0.00000000D+00 0.00000000D+00 0.39465348D+00
   23 Alpha MO OE= 0.27705617D+00
 0.00000000D+00 0.00000000D+00 0.00000000D+00-0.16316402D-01 0.00000000D+00
 0.00000000D+00 0.40181881D+00 0.00000000D+00 0.00000000D+00 0.00000000D+00
 0.00000000D+00 0.00000000D+00 0.00000000D+00-0.32665665D-02 0.00000000D+00
 0.00000000D+00 0.34907620D+01 0.00000000D+00 0.00000000D+00 0.00000000D+00
 0.00000000D+00 0.00000000D+00 0.00000000D+00-0.39465348D+00 0.00000000D+00
 0.00000000D+00 0.00000000D+00 0.00000000D+00 0.00000000D+00-0.31496596D-01
 0.00000000D+00 0.00000000D+00-0.66809977D-01 0.00000000D+00 0.00000000D+00
-0.26637701D+01 0.00000000D+00 0.00000000D+00 0.00000000D+00 0.00000000D+00
 0.00000000D+00 0.00000000D+00 0.10984163D-01 0.00000000D+00 0.00000000D+00
 0.00000000D+00 0.00000000D+00 0.00000000D+00-0.23249228D+00 0.00000000D+00
 0.10803939D-01 0.00000000D+00 0.00000000D+00 0.48316684D-02 0.00000000D+00
 0.00000000D+00 0.24167853D-02 0.00000000D+00 0.00000000D+00 0.00000000D+00
 0.00000000D+00-0.55278692D+00 0.00000000D+00 0.00000000D+00 0.00000000D+00
 0.00000000D+00 0.00000000D+00 0.00000000D+00-0.16004993D+01 0.00000000D+00
 0.18627103D+00 0.00000000D+00 0.00000000D+00 0.83302936D-01 0.00000000D+00
 0.00000000D+00-0.32462073D+00 0.00000000D+00 0.00000000D+00 0.00000000D+00
 0.00000000D+00 0.00000000D+00 0.00000000D+00 0.00000000D+00-0.31496596D-01
 0.00000000D+00 0.00000000D+00-0.66809977D-01 0.00000000D+00 0.00000000D+00
-0.26637701D+01 0.00000000D+00 0.00000000D+00 0.00000000D+00 0.00000000D+00
 0.00000000D+00 0.00000000D+00-0.10984163D-01 0.00000000D+00 0.00000000D+00
 0.00000000D+00 0.00000000D+00 0.00000000D+00 0.23249228D+00 0.00000000D+00
 0.10803939D-01 0.00000000D+00 0.00000000D+00 0.48316684D-02 0.00000000D+00
 0.00000000D+00 0.24167853D-02 0.00000000D+00 0.00000000D+00 0.00000000D+00
 0.00000000D+00-0.55278692D+00 0.00000000D+00 0.00000000D+00 0.00000000D+00
 0.00000000D+00 0.00000000D+00 0.00000000D+00 0.16004993D+01 0.00000000D+00
 0.18627103D+00 0.00000000D+00 0.00000000D+00 0.83302936D-01 0.00000000D+00
 0.00000000D+00-0.32462073D+00 0.00000000D+00 0.00000000D+00 0.00000000D+00
 0.00000000D+00 0.00000000D+00 0.00000000D+00-0.16316402D-01 0.00000000D+00
 0.00000000D+00 0.40181881D+00 0.00000000D+00 0.00000000D+00 0.00000000D+00
 0.00000000D+00 0.00000000D+00 0.00000000D+00 0.32665665D-02 0.00000000D+00
 0.00000000D+00 0.34907620D+01 0.00000000D+00 0.00000000D+00 0.00000000D+00
 0.00000000D+00 0.00000000D+00 0.00000000D+00 0.39465348D+00 0.00000000D+00
   24 Alpha MO OE= 0.30041377D+00
 0.41168739D-12-0.42651819D-09-0.12653048D-07 0.00000000D+00 0.00000000D+00
 0.31081442D-12 0.00000000D+00 0.00000000D+00-0.16758002D-10 0.55169284D-02
-0.55169284D-02 0.38169108D-12 0.00000000D+00 0.00000000D+00 0.00000000D+00
 0.14305134D-09 0.00000000D+00 0.00000000D+00 0.19036818D-08-0.44402146D-01
 0.44402146D-01-0.15413805D-10 0.00000000D+00 0.00000000D+00 0.00000000D+00
 0.13177731D-11 0.61746906D-12-0.30856213D-10 0.68812235D-08 0.00000000D+00
 0.00000000D+00-0.19440414D-11 0.00000000D+00 0.00000000D+00 0.29162435D-10
 0.00000000D+00 0.00000000D+00 0.20993252D-08 0.23662733D-01-0.23662733D-01
-0.36493157D-11 0.00000000D+00 0.00000000D+00 0.00000000D+00-0.32568624D-01
 0.32568624D-01-0.14640140D-09 0.00000000D+00 0.00000000D+00 0.00000000D+00
 0.00000000D+00 0.00000000D+00-0.25244658D-11 0.00000000D+00 0.00000000D+00
-0.98080629D-02 0.00000000D+00 0.00000000D+00 0.98080629D-02 0.00000000D+00
-0.61616366D-09 0.00000000D+00 0.00000000D+00-0.19127763D-09 0.49637580D+00
-0.49637579D+00 0.57998058D-08 0.00000000D+00 0.00000000D+00 0.00000000D+00
 0.00000000D+00 0.00000000D+00 0.25675231D-09 0.00000000D+00 0.00000000D+00
 0.33468711D-01 0.00000000D+00 0.00000000D+00-0.33468711D-01 0.00000000D+00
 0.13177731D-11 0.61746906D-12-0.30856213D-10 0.68812235D-08 0.00000000D+00
 0.00000000D+00 0.19440414D-11 0.00000000D+00 0.00000000D+00-0.29162435D-10
 0.00000000D+00 0.00000000D+00-0.20993252D-08 0.23662733D-01-0.23662733D-01
-0.36493157D-11 0.00000000D+00 0.00000000D+00 0.00000000D+00-0.32568624D-01
[...]
 0.79353580D+00 0.10375241D+01 0.00000000D+00 0.00000000D+00 0.00000000D+00
-0.31811001D+00 0.00000000D+00 0.00000000D+00 0.20616952D+02 0.24077704D+01
 0.24077704D+01 0.74752815D+00 0.00000000D+00 0.00000000D+00 0.00000000D+00
  153 Alpha MO OE= 0.93207735D+01
 0.44978385D+00 0.92166096D+01-0.67481811D+02 0.00000000D+00 0.00000000D+00
-0.55237289D+00 0.00000000D+00 0.00000000D+00-0.19772684D+01 0.23105735D+00
 0.23105735D+00 0.11128743D+01 0.00000000D+00 0.00000000D+00 0.00000000D+00
-0.24925915D+00 0.00000000D+00 0.00000000D+00 0.95033431D+01 0.22682922D+01
 0.22682922D+01 0.19795802D+01 0.00000000D+00 0.00000000D+00 0.00000000D+00
-0.18099321D+00 0.59264054D+01-0.31351793D+01 0.20949896D+03 0.00000000D+00
 0.00000000D+00 0.10567991D+00 0.00000000D+00 0.00000000D+00-0.10101317D+02
 0.00000000D+00 0.00000000D+00-0.35117701D+02-0.27941030D+01-0.27941030D+01
-0.37498711D+01 0.00000000D+00 0.00000000D+00 0.00000000D+00-0.70377446D+01
-0.70377446D+01-0.47838766D+01 0.00000000D+00 0.00000000D+00 0.00000000D+00
 0.00000000D+00 0.00000000D+00-0.24804109D+00 0.00000000D+00 0.00000000D+00
 0.23502172D+00 0.00000000D+00 0.00000000D+00 0.23502172D+00 0.00000000D+00
-0.16178318D+02 0.00000000D+00 0.00000000D+00 0.17960252D+01 0.12772475D+02
 0.12772475D+02 0.39026545D+02 0.00000000D+00 0.00000000D+00 0.00000000D+00
 0.00000000D+00 0.00000000D+00-0.49810499D+01 0.00000000D+00 0.00000000D+00
-0.63777141D+00 0.00000000D+00 0.00000000D+00-0.63777141D+00 0.00000000D+00
 0.18099321D+00-0.59264054D+01 0.31351793D+01-0.20949896D+03 0.00000000D+00
 0.00000000D+00 0.10567991D+00 0.00000000D+00 0.00000000D+00-0.10101317D+02
 0.00000000D+00 0.00000000D+00-0.35117701D+02 0.27941030D+01 0.27941030D+01
 0.37498711D+01 0.00000000D+00 0.00000000D+00 0.00000000D+00 0.70377446D+01
 0.70377446D+01 0.47838766D+01 0.00000000D+00 0.00000000D+00 0.00000000D+00
 0.00000000D+00 0.00000000D+00-0.24804109D+00 0.00000000D+00 0.00000000D+00
 0.23502172D+00 0.00000000D+00 0.00000000D+00 0.23502172D+00 0.00000000D+00
 0.16178318D+02 0.00000000D+00 0.00000000D+00 0.17960252D+01-0.12772475D+02
-0.12772475D+02-0.39026545D+02 0.00000000D+00 0.00000000D+00 0.00000000D+00
 0.00000000D+00 0.00000000D+00-0.49810499D+01 0.00000000D+00 0.00000000D+00
-0.63777141D+00 0.00000000D+00 0.00000000D+00-0.63777141D+00 0.00000000D+00
-0.44978385D+00-0.92166096D+01 0.67481811D+02 0.00000000D+00 0.00000000D+00
-0.55237289D+00 0.00000000D+00 0.00000000D+00-0.19772684D+01-0.23105735D+00
-0.23105735D+00-0.11128743D+01 0.00000000D+00 0.00000000D+00 0.00000000D+00
 0.24925915D+00 0.00000000D+00 0.00000000D+00 0.95033431D+01-0.22682922D+01
-0.22682922D+01-0.19795802D+01 0.00000000D+00 0.00000000D+00 0.00000000D+00
  154 Alpha MO OE= 0.94918134D+01
-0.14258475D+01 0.55041175D+01 0.95230131D+02 0.00000000D+00 0.00000000D+00
 0.12530865D+01 0.00000000D+00 0.00000000D+00-0.73877230D+00-0.51279592D+00
-0.51279592D+00-0.12981578D+01 0.00000000D+00 0.00000000D+00 0.00000000D+00
 0.47690773D-01 0.00000000D+00 0.00000000D+00-0.15864416D+02-0.85056530D+00
-0.85056530D+00-0.89425929D+00 0.00000000D+00 0.00000000D+00 0.00000000D+00
 0.13247746D+00-0.84716156D+00 0.12982344D+01-0.62420708D+02 0.00000000D+00
 0.00000000D+00 0.27221792D+01 0.00000000D+00 0.00000000D+00-0.14348567D+02
 0.00000000D+00 0.00000000D+00-0.30508960D+02 0.51724341D+00 0.51724341D+00
 0.19717863D+01 0.00000000D+00 0.00000000D+00 0.00000000D+00 0.22822676D+01
 0.22822676D+01 0.66647165D+00 0.00000000D+00 0.00000000D+00 0.00000000D+00
 0.00000000D+00 0.00000000D+00 0.92141304D+01 0.00000000D+00 0.00000000D+00
 0.28174870D+01 0.00000000D+00 0.00000000D+00 0.28174870D+01 0.00000000D+00
 0.81391696D+00 0.00000000D+00 0.00000000D+00-0.39253474D+00-0.37928807D+01
-0.37928807D+01-0.32566539D+02 0.00000000D+00 0.00000000D+00 0.00000000D+00
 0.00000000D+00 0.00000000D+00 0.41912807D+01 0.00000000D+00 0.00000000D+00
 0.32264916D+01 0.00000000D+00 0.00000000D+00 0.32264916D+01 0.00000000D+00
 0.13247746D+00-0.84716156D+00 0.12982344D+01-0.62420708D+02 0.00000000D+00
 0.00000000D+00-0.27221792D+01 0.00000000D+00 0.00000000D+00 0.14348567D+02
 0.00000000D+00 0.00000000D+00 0.30508960D+02 0.51724341D+00 0.51724341D+00
 0.19717863D+01 0.00000000D+00 0.00000000D+00 0.00000000D+00 0.22822676D+01
 0.22822676D+01 0.66647165D+00 0.00000000D+00 0.00000000D+00 0.00000000D+00
 0.00000000D+00 0.00000000D+00-0.92141304D+01 0.00000000D+00 0.00000000D+00
-0.28174870D+01 0.00000000D+00 0.00000000D+00-0.28174870D+01 0.00000000D+00
 0.81391696D+00 0.00000000D+00 0.00000000D+00 0.39253474D+00-0.37928807D+01
-0.37928807D+01-0.32566539D+02 0.00000000D+00 0.00000000D+00 0.00000000D+00
 0.00000000D+00 0.00000000D+00-0.41912807D+01 0.00000000D+00 0.00000000D+00
-0.32264916D+01 0.00000000D+00 0.00000000D+00-0.32264916D+01 0.00000000D+00
-0.14258475D+01 0.55041175D+01 0.95230131D+02 0.00000000D+00 0.00000000D+00
-0.12530865D+01 0.00000000D+00 0.00000000D+00 0.73877230D+00-0.51279592D+00
-0.51279592D+00-0.12981578D+01 0.00000000D+00 0.00000000D+00 0.00000000D+00
 0.47690773D-01 0.00000000D+00 0.00000000D+00 0.15864416D+02-0.85056530D+00
-0.85056530D+00-0.89425929D+00 0.00000000D+00 0.00000000D+00 0.00000000D+00
  155 Alpha MO OE= 0.96735171D+01
-0.17322573D+01 0.42615212D-01 0.92317223D+02 0.00000000D+00 0.00000000D+00
 0.14309312D+01 0.00000000D+00 0.00000000D+00 0.50975567D+01-0.67117668D+00
-0.67117668D+00-0.21129384D+01 0.00000000D+00 0.00000000D+00 0.00000000D+00
 0.63897905D-01 0.00000000D+00 0.00000000D+00-0.11673019D+02 0.99502911D+00
 0.99502911D+00-0.14740572D+01 0.00000000D+00 0.00000000D+00 0.00000000D+00
 0.82983484D-01-0.36267148D+01 0.21057289D+01-0.49492104D+02 0.00000000D+00
 0.00000000D+00-0.17036118D+01 0.00000000D+00 0.00000000D+00 0.87283230D+01
 0.00000000D+00 0.00000000D+00-0.10146955D+02 0.15748614D+01 0.15748614D+01
 0.31702883D+01 0.00000000D+00 0.00000000D+00 0.00000000D+00 0.18237198D+01
 0.18237198D+01 0.84670441D+01 0.00000000D+00 0.00000000D+00 0.00000000D+00
 0.00000000D+00 0.00000000D+00 0.51475710D+00 0.00000000D+00 0.00000000D+00
-0.18205952D+01 0.00000000D+00 0.00000000D+00-0.18205952D+01 0.00000000D+00
 0.18509992D+00 0.00000000D+00 0.00000000D+00-0.39637056D-01-0.20293000D+01
-0.20293000D+01-0.43954867D+02 0.00000000D+00 0.00000000D+00 0.00000000D+00
 0.00000000D+00 0.00000000D+00-0.82406191D+01 0.00000000D+00 0.00000000D+00
-0.10816131D+01 0.00000000D+00 0.00000000D+00-0.10816131D+01 0.00000000D+00
 0.82983484D-01-0.36267148D+01 0.21057289D+01-0.49492104D+02 0.00000000D+00
 0.00000000D+00 0.17036118D+01 0.00000000D+00 0.00000000D+00-0.87283230D+01
 0.00000000D+00 0.00000000D+00 0.10146955D+02 0.15748614D+01 0.15748614D+01
 0.31702883D+01 0.00000000D+00 0.00000000D+00 0.00000000D+00 0.18237198D+01
 0.18237198D+01 0.84670441D+01 0.00000000D+00 0.00000000D+00 0.00000000D+00
 0.00000000D+00 0.00000000D+00-0.51475710D+00 0.00000000D+00 0.00000000D+00
 0.18205952D+01 0.00000000D+00 0.00000000D+00 0.18205952D+01 0.00000000D+00
 0.18509992D+00 0.00000000D+00 0.00000000D+00 0.39637056D-01-0.20293000D+01
-0.20293000D+01-0.43954867D+02 0.00000000D+00 0.00000000D+00 0.00000000D+00
 0.00000000D+00 0.00000000D+00 0.82406191D+01 0.00000000D+00 0.00000000D+00
 0.10816131D+01 0.00000000D+00 0.00000000D+00 0.10816131D+01 0.00000000D+00
-0.17322573D+01 0.42615212D-01 0.92317223D+02 0.00000000D+00 0.00000000D+00
-0.14309312D+01 0.00000000D+00 0.00000000D+00-0.50975567D+01-0.67117668D+00
-0.67117668D+00-0.21129384D+01 0.00000000D+00 0.00000000D+00 0.00000000D+00
 0.63897905D-01 0.00000000D+00 0.00000000D+00 0.11673019D+02 0.99502911D+00
 0.99502911D+00-0.14740572D+01 0.00000000D+00 0.00000000D+00 0.00000000D+00
  156 Alpha MO OE= 0.99167623D+01
 0.00000000D+00 0.00000000D+00 0.00000000D+00 0.66826922D-01 0.00000000D+00
 0.00000000D+00-0.87559927D+00 0.00000000D+00 0.00000000D+00 0.00000000D+00
 0.00000000D+00 0.00000000D+00 0.00000000D+00 0.57488295D-01 0.00000000D+00
 0.00000000D+00 0.26025276D+01 0.00000000D+00 0.00000000D+00 0.00000000D+00
 0.00000000D+00 0.00000000D+00 0.00000000D+00-0.80800958D-01 0.00000000D+00
 0.00000000D+00 0.00000000D+00 0.00000000D+00 0.00000000D+00-0.32504154D+01
 0.00000000D+00 0.00000000D+00 0.17954415D+02 0.00000000D+00 0.00000000D+00
 0.19660532D+02 0.00000000D+00 0.00000000D+00 0.00000000D+00 0.00000000D+00
 0.00000000D+00 0.00000000D+00 0.15214305D+00 0.00000000D+00 0.00000000D+00
 0.00000000D+00 0.00000000D+00 0.00000000D+00-0.43041273D+01 0.00000000D+00
-0.70323366D+01 0.00000000D+00 0.00000000D+00-0.31449565D+01 0.00000000D+00
 0.00000000D+00-0.28186633D+01 0.00000000D+00 0.00000000D+00 0.00000000D+00
 0.00000000D+00 0.73578167D+00 0.00000000D+00 0.00000000D+00 0.00000000D+00
 0.00000000D+00 0.00000000D+00 0.00000000D+00-0.73916335D+01 0.00000000D+00
-0.56060413D+01 0.00000000D+00 0.00000000D+00-0.25070979D+01 0.00000000D+00
 0.00000000D+00 0.45297377D+00 0.00000000D+00 0.00000000D+00 0.00000000D+00
 0.00000000D+00 0.00000000D+00 0.00000000D+00 0.00000000D+00 0.32504154D+01
 0.00000000D+00 0.00000000D+00-0.17954415D+02 0.00000000D+00 0.00000000D+00
-0.19660532D+02 0.00000000D+00 0.00000000D+00 0.00000000D+00 0.00000000D+00
 0.00000000D+00 0.00000000D+00 0.15214305D+00 0.00000000D+00 0.00000000D+00
 0.00000000D+00 0.00000000D+00 0.00000000D+00-0.43041273D+01 0.00000000D+00
 0.70323366D+01 0.00000000D+00 0.00000000D+00 0.31449565D+01 0.00000000D+00
 0.00000000D+00 0.28186633D+01 0.00000000D+00 0.00000000D+00 0.00000000D+00
 0.00000000D+00-0.73578167D+00 0.00000000D+00 0.00000000D+00 0.00000000D+00
 0.00000000D+00 0.00000000D+00 0.00000000D+00-0.73916335D+01 0.00000000D+00
 0.56060413D+01 0.00000000D+00 0.00000000D+00 0.25070979D+01 0.00000000D+00
 0.00000000D+00-0.45297377D+00 0.00000000D+00 0.00000000D+00 0.00000000D+00
 0.00000000D+00 0.00000000D+00 0.00000000D+00-0.66826922D-01 0.00000000D+00
 0.00000000D+00 0.87559927D+00 0.00000000D+00 0.00000000D+00 0.00000000D+00
 0.00000000D+00 0.00000000D+00 0.00000000D+00 0.57488295D-01 0.00000000D+00
 0.00000000D+00-0.26025276D+01 0.00000000D+00 0.00000000D+00 0.00000000D+00
 0.00000000D+00 0.00000000D+00 0.00000000D+00-0.80800958D-01 0.00000000D+00
  157 Alpha MO OE= 0.99167623D+01
 0.00000000D+00 0.00000000D+00 0.00000000D+00 0.00000000D+00 0.66826922D-01
 0.00000000D+00 0.00000000D+00-0.87559927D+00 0.00000000D+00 0.00000000D+00
 0.00000000D+00 0.00000000D+00 0.00000000D+00 0.00000000D+00 0.57488295D-01
 0.00000000D+00 0.00000000D+00 0.26025276D+01 0.00000000D+00 0.00000000D+00
 0.00000000D+00 0.00000000D+00 0.00000000D+00 0.00000000D+00-0.80800958D-01
 0.00000000D+00 0.00000000D+00 0.00000000D+00 0.00000000D+00 0.00000000D+00
-0.32504154D+01 0.00000000D+00 0.00000000D+00 0.17954415D+02 0.00000000D+00
 0.00000000D+00 0.19660532D+02 0.00000000D+00 0.00000000D+00 0.00000000D+00
 0.00000000D+00 0.00000000D+00 0.00000000D+00 0.15214305D+00 0.00000000D+00
 0.00000000D+00 0.00000000D+00 0.00000000D+00 0.00000000D+00-0.43041273D+01
 0.00000000D+00-0.70323366D+01 0.00000000D+00 0.00000000D+00-0.31449565D+01
 0.00000000D+00 0.00000000D+00-0.28186633D+01 0.00000000D+00 0.00000000D+00
 0.00000000D+00 0.00000000D+00 0.73578167D+00 0.00000000D+00 0.00000000D+00
 0.00000000D+00 0.00000000D+00 0.00000000D+00 0.00000000D+00-0.73916335D+01
 0.00000000D+00-0.56060413D+01 0.00000000D+00 0.00000000D+00-0.25070979D+01
 0.00000000D+00 0.00000000D+00 0.45297377D+00 0.00000000D+00 0.00000000D+00
 0.00000000D+00 0.00000000D+00 0.00000000D+00 0.00000000D+00 0.00000000D+00
 0.32504154D+01 0.00000000D+00 0.00000000D+00-0.17954415D+02 0.00000000D+00
 0.00000000D+00-0.19660532D+02 0.00000000D+00 0.00000000D+00 0.00000000D+00
 0.00000000D+00 0.00000000D+00 0.00000000D+00 0.15214305D+00 0.00000000D+00
 0.00000000D+00 0.00000000D+00 0.00000000D+00 0.00000000D+00-0.43041273D+01
 0.00000000D+00 0.70323366D+01 0.00000000D+00 0.00000000D+00 0.31449565D+01
 0.00000000D+00 0.00000000D+00 0.28186633D+01 0.00000000D+00 0.00000000D+00
 0.00000000D+00 0.00000000D+00-0.73578167D+00 0.00000000D+00 0.00000000D+00
 0.00000000D+00 0.00000000D+00 0.00000000D+00 0.00000000D+00-0.73916335D+01
 0.00000000D+00 0.56060413D+01 0.00000000D+00 0.00000000D+00 0.25070979D+01
 0.00000000D+00 0.00000000D+00-0.45297377D+00 0.00000000D+00 0.00000000D+00
 0.00000000D+00 0.00000000D+00 0.00000000D+00 0.00000000D+00-0.66826922D-01
 0.00000000D+00 0.00000000D+00 0.87559927D+00 0.00000000D+00 0.00000000D+00
 0.00000000D+00 0.00000000D+00 0.00000000D+00 0.00000000D+00 0.57488295D-01
 0.00000000D+00 0.00000000D+00-0.26025276D+01 0.00000000D+00 0.00000000D+00
 0.00000000D+00 0.00000000D+00 0.00000000D+00 0.00000000D+00-0.80800958D-01
  158 Alpha MO OE= 0.11586430D+02
 0.48496628D+00-0.30222145D+02-0.19399669D+02 0.00000000D+00 0.00000000D+00
 0.23233066D-01 0.00000000D+00 0.00000000D+00 0.93307578D+01 0.33513722D+00
 0.33513722D+00-0.27636590D+00 0.00000000D+00 0.00000000D+00 0.00000000D+00
 0.42518738D+00 0.00000000D+00 0.00000000D+00 0.36082407D+01 0.16375297D+01
 0.16375297D+01 0.50677987D+00 0.00000000D+00 0.00000000D+00 0.00000000D+00
 0.43286646D-02 0.41800623D+00-0.22074647D+00 0.51762933D+02 0.00000000D+00
 0.00000000D+00-0.37017515D+01 0.00000000D+00 0.00000000D+00 0.33517314D+02
 0.00000000D+00 0.00000000D+00-0.64773999D+01-0.18444518D+00-0.18444518D+00
-0.15598904D-01 0.00000000D+00 0.00000000D+00 0.00000000D+00-0.14781743D+01
-0.14781743D+01 0.82230500D+01 0.00000000D+00 0.00000000D+00 0.00000000D+00
 0.00000000D+00 0.00000000D+00-0.65712114D+01 0.00000000D+00 0.00000000D+00
-0.33593694D+01 0.00000000D+00 0.00000000D+00-0.33593694D+01 0.00000000D+00
 0.31750269D+01 0.00000000D+00 0.00000000D+00-0.93627480D+00 0.25235131D+01
 0.25235131D+01 0.78299199D+01 0.00000000D+00 0.00000000D+00 0.00000000D+00
 0.00000000D+00 0.00000000D+00 0.89266030D+01 0.00000000D+00 0.00000000D+00
-0.23256156D+01 0.00000000D+00 0.00000000D+00-0.23256156D+01 0.00000000D+00
-0.43286646D-02-0.41800623D+00 0.22074647D+00-0.51762933D+02 0.00000000D+00
 0.00000000D+00-0.37017515D+01 0.00000000D+00 0.00000000D+00 0.33517314D+02
 0.00000000D+00 0.00000000D+00-0.64773999D+01 0.18444518D+00 0.18444518D+00
 0.15598904D-01 0.00000000D+00 0.00000000D+00 0.00000000D+00 0.14781743D+01
 0.14781743D+01-0.82230500D+01 0.00000000D+00 0.00000000D+00 0.00000000D+00
 0.00000000D+00 0.00000000D+00-0.65712114D+01 0.00000000D+00 0.00000000D+00
-0.33593694D+01 0.00000000D+00 0.00000000D+00-0.33593694D+01 0.00000000D+00
-0.31750269D+01 0.00000000D+00 0.00000000D+00-0.93627480D+00-0.25235131D+01
-0.25235131D+01-0.78299199D+01 0.00000000D+00 0.00000000D+00 0.00000000D+00
 0.00000000D+00 0.00000000D+00 0.89266030D+01 0.00000000D+00 0.00000000D+00
-0.23256156D+01 0.00000000D+00 0.00000000D+00-0.23256156D+01 0.00000000D+00
-0.48496628D+00 0.30222145D+02 0.19399669D+02 0.00000000D+00 0.00000000D+00
 0.23233066D-01 0.00000000D+00 0.00000000D+00 0.93307578D+01-0.33513722D+00
-0.33513722D+00 0.27636590D+00 0.00000000D+00 0.00000000D+00 0.00000000D+00
-0.42518738D+00 0.00000000D+00 0.00000000D+00 0.36082407D+01-0.16375297D+01
-0.16375297D+01-0.50677987D+00 0.00000000D+00 0.00000000D+00 0.00000000D+00
  159 Alpha MO OE= 0.35212554D+02
-0.82407471D+00 0.22893674D+02 0.26121092D+02 0.00000000D+00 0.00000000D+00
 0.28419638D+00 0.00000000D+00 0.00000000D+00-0.18559165D+01-0.38652730D+00
-0.38652730D+00-0.46323298D+00 0.00000000D+00 0.00000000D+00 0.00000000D+00
 0.10722803D+00 0.00000000D+00 0.00000000D+00-0.27303338D+01 0.16485055D+01
 0.16485055D+01-0.53785543D+00 0.00000000D+00 0.00000000D+00 0.00000000D+00
-0.28078580D+01-0.23768588D+02-0.44744314D+00-0.16462283D+02 0.00000000D+00
 0.00000000D+00 0.41404490D+00 0.00000000D+00 0.00000000D+00-0.10368257D+02
 0.00000000D+00 0.00000000D+00-0.26181342D+00 0.26671169D+01 0.26671169D+01
 0.25524949D+01 0.00000000D+00 0.00000000D+00 0.00000000D+00 0.50448958D+00
 0.50448958D+00 0.36383794D+01 0.00000000D+00 0.00000000D+00 0.00000000D+00
 0.00000000D+00 0.00000000D+00 0.13318630D+01 0.00000000D+00 0.00000000D+00
 0.20314887D+00 0.00000000D+00 0.00000000D+00 0.20314887D+00 0.00000000D+00
-0.62409568D+00 0.00000000D+00 0.00000000D+00 0.15865880D+00 0.22966453D+00
 0.22966453D+00-0.14325081D+02 0.00000000D+00 0.00000000D+00 0.00000000D+00
 0.00000000D+00 0.00000000D+00-0.19826212D+02 0.00000000D+00 0.00000000D+00
-0.12109989D+01 0.00000000D+00 0.00000000D+00-0.12109989D+01 0.00000000D+00
-0.28078580D+01-0.23768588D+02-0.44744314D+00-0.16462283D+02 0.00000000D+00
 0.00000000D+00-0.41404490D+00 0.00000000D+00 0.00000000D+00 0.10368257D+02
 0.00000000D+00 0.00000000D+00 0.26181342D+00 0.26671169D+01 0.26671169D+01
 0.25524949D+01 0.00000000D+00 0.00000000D+00 0.00000000D+00 0.50448958D+00
 0.50448958D+00 0.36383794D+01 0.00000000D+00 0.00000000D+00 0.00000000D+00
 0.00000000D+00 0.00000000D+00-0.13318630D+01 0.00000000D+00 0.00000000D+00
-0.20314887D+00 0.00000000D+00 0.00000000D+00-0.20314887D+00 0.00000000D+00
-0.62409568D+00 0.00000000D+00 0.00000000D+00-0.15865880D+00 0.22966453D+00
 0.22966453D+00-0.14325081D+02 0.00000000D+00 0.00000000D+00 0.00000000D+00
 0.00000000D+00 0.00000000D+00 0.19826212D+02 0.00000000D+00 0.00000000D+00
 0.12109989D+01 0.00000000D+00 0.00000000D+00 0.12109989D+01 0.00000000D+00
-0.82407471D+00 0.22893674D+02 0.26121092D+02 0.00000000D+00 0.00000000D+00
-0.28419638D+00 0.00000000D+00 0.00000000D+00 0.18559165D+01-0.38652730D+00
-0.38652730D+00-0.46323298D+00 0.00000000D+00 0.00000000D+00 0.00000000D+00
 0.10722803D+00 0.00000000D+00 0.00000000D+00 0.27303338D+01 0.16485055D+01
 0.16485055D+01-0.53785543D+00 0.00000000D+00 0.00000000D+00 0.00000000D+00
  160 Alpha MO OE= 0.36789838D+02
 0.31539511D+00-0.94909158D+01-0.49480726D+02 0.00000000D+00 0.00000000D+00
-0.23747838D+00 0.00000000D+00 0.00000000D+00 0.40179630D+01 0.13059690D+00
 0.13059690D+00 0.30462080D+00 0.00000000D+00 0.00000000D+00 0.00000000D+00
 0.31300550D+00 0.00000000D+00 0.00000000D+00 0.75884408D+01 0.22256106D+01
 0.22256106D+01 0.12820710D+01 0.00000000D+00 0.00000000D+00 0.00000000D+00
 0.28855226D+01 0.24426443D+02 0.49404920D+00 0.14259823D+03 0.00000000D+00
 0.00000000D+00 0.42611273D-01 0.00000000D+00 0.00000000D+00-0.11233907D+02
 0.00000000D+00 0.00000000D+00-0.19833380D+02-0.26876003D+01-0.26876003D+01
-0.26913518D+01 0.00000000D+00 0.00000000D+00 0.00000000D+00-0.33690780D+01
-0.33690780D+01 0.12486220D+02 0.00000000D+00 0.00000000D+00 0.00000000D+00
 0.00000000D+00 0.00000000D+00-0.57868068D+00 0.00000000D+00 0.00000000D+00
 0.24361591D-01 0.00000000D+00 0.00000000D+00 0.24361591D-01 0.00000000D+00
-0.40810308D+01 0.00000000D+00 0.00000000D+00-0.11010201D+00 0.79896486D+01
 0.79896486D+01 0.25489815D+02 0.00000000D+00 0.00000000D+00 0.00000000D+00
 0.00000000D+00 0.00000000D+00-0.33270056D+01 0.00000000D+00 0.00000000D+00
-0.26081716D+01 0.00000000D+00 0.00000000D+00-0.26081716D+01 0.00000000D+00
-0.28855226D+01-0.24426443D+02-0.49404920D+00-0.14259823D+03 0.00000000D+00
 0.00000000D+00 0.42611273D-01 0.00000000D+00 0.00000000D+00-0.11233907D+02
 0.00000000D+00 0.00000000D+00-0.19833380D+02 0.26876003D+01 0.26876003D+01
 0.26913518D+01 0.00000000D+00 0.00000000D+00 0.00000000D+00 0.33690780D+01
 0.33690780D+01-0.12486220D+02 0.00000000D+00 0.00000000D+00 0.00000000D+00
 0.00000000D+00 0.00000000D+00-0.57868068D+00 0.00000000D+00 0.00000000D+00
 0.24361591D-01 0.00000000D+00 0.00000000D+00 0.24361591D-01 0.00000000D+00
 0.40810308D+01 0.00000000D+00 0.00000000D+00-0.11010201D+00-0.79896486D+01
-0.79896486D+01-0.25489815D+02 0.00000000D+00 0.00000000D+00 0.00000000D+00
 0.00000000D+00 0.00000000D+00-0.33270056D+01 0.00000000D+00 0.00000000D+00
-0.26081716D+01 0.00000000D+00 0.00000000D+00-0.26081716D+01 0.00000000D+00
-0.31539511D+00 0.94909158D+01 0.49480726D+02 0.00000000D+00 0.00000000D+00
-0.23747838D+00 0.00000000D+00 0.00000000D+00 0.40179630D+01-0.13059690D+00
-0.13059690D+00-0.30462080D+00 0.00000000D+00 0.00000000D+00 0.00000000D+00
-0.31300550D+00 0.00000000D+00 0.00000000D+00 0.75884408D+01-0.22256106D+01
-0.22256106D+01-0.12820710D+01 0.00000000D+00 0.00000000D+00 0.00000000D+00
