 Entering Gaussian System, Link 0=g03
 Initial command:
 /usr/local/g03/g03/l1.exe /tmp/rrl581a/Gau-1876527.inp -scrdir=/tmp/rrl581a/
 Entering Link 1 = /usr/local/g03/g03/l1.exe PID=   1876642.
  
 Copyright (c) 1988,1990,1992,1993,1995,1998,2003,2004, Gaussian, Inc.
                  All Rights Reserved.
  
 This is the Gaussian(R) 03 program.  It is based on the
 the Gaussian(R) 98 system (copyright 1998, Gaussian, Inc.),
 the Gaussian(R) 94 system (copyright 1995, Gaussian, Inc.),
 the Gaussian 92(TM) system (copyright 1992, Gaussian, Inc.),
 the Gaussian 90(TM) system (copyright 1990, Gaussian, Inc.),
 the Gaussian 88(TM) system (copyright 1988, Gaussian, Inc.),
 the Gaussian 86(TM) system (copyright 1986, Carnegie Mellon
 University), and the Gaussian 82(TM) system (copyright 1983,
 Carnegie Mellon University). Gaussian is a federally registered
 trademark of Gaussian, Inc.
  
 This software contains proprietary and confidential information,
 including trade secrets, belonging to Gaussian, Inc.
  
 This software is provided under written license and may be
 used, copied, transmitted, or stored only in accord with that
 written license.
  
 The following legend is applicable only to US Government
 contracts under FAR:
  
                    RESTRICTED RIGHTS LEGEND
  
 Use, reproduction and disclosure by the US Government is
 subject to restrictions as set forth in subparagraphs (a)
 and (c) of the Commercial Computer Software - Restricted
 Rights clause in FAR 52.227-19.
  
 Gaussian, Inc.
 340 Quinnipiac St., Bldg. 40, Wallingford CT 06492
  
  
 ---------------------------------------------------------------
 Warning -- This program may not be used in any manner that
 competes with the business of Gaussian, Inc. or will provide
 assistance to any competitor of Gaussian, Inc.  The licensee
 of this program is prohibited from giving any competitor of
 Gaussian, Inc. access to this program.  By using this program,
 the user acknowledges that Gaussian, Inc. is engaged in the
 business of creating and licensing software in the field of
 computational chemistry and represents and warrants to the
 licensee that it is not a competitor of Gaussian, Inc. and that
 it will not use this program in any manner prohibited above.
 ---------------------------------------------------------------
  

 Cite this work as:
 Gaussian 03, Revision C.02,
 M. J. Frisch, G. W. Trucks, H. B. Schlegel, G. E. Scuseria, 
 M. A. Robb, J. R. Cheeseman, J. A. Montgomery, Jr., T. Vreven, 
 K. N. Kudin, J. C. Burant, J. M. Millam, S. S. Iyengar, J. Tomasi, 
 V. Barone, B. Mennucci, M. Cossi, G. Scalmani, N. Rega, 
 G. A. Petersson, H. Nakatsuji, M. Hada, M. Ehara, K. Toyota, 
 R. Fukuda, J. Hasegawa, M. Ishida, T. Nakajima, Y. Honda, O. Kitao, 
 H. Nakai, M. Klene, X. Li, J. E. Knox, H. P. Hratchian, J. B. Cross, 
 C. Adamo, J. Jaramillo, R. Gomperts, R. E. Stratmann, O. Yazyev, 
 A. J. Austin, R. Cammi, C. Pomelli, J. W. Ochterski, P. Y. Ayala, 
 K. Morokuma, G. A. Voth, P. Salvador, J. J. Dannenberg, 
 V. G. Zakrzewski, S. Dapprich, A. D. Daniels, M. C. Strain, 
 O. Farkas, D. K. Malick, A. D. Rabuck, K. Raghavachari, 
 J. B. Foresman, J. V. Ortiz, Q. Cui, A. G. Baboul, S. Clifford, 
 J. Cioslowski, B. B. Stefanov, G. Liu, A. Liashenko, P. Piskorz, 
 I. Komaromi, R. L. Martin, D. J. Fox, T. Keith, M. A. Al-Laham, 
 C. Y. Peng, A. Nanayakkara, M. Challacombe, P. M. W. Gill, 
 B. Johnson, W. Chen, M. W. Wong, C. Gonzalez, and J. A. Pople, 
 Gaussian, Inc., Wallingford CT, 2004.
 
 ******************************************
 Gaussian 03:  SGI64-G03RevC.02 12-Jun-2004
                30-May-2005 
 ******************************************
 --------------------------------------------------------------
 # rhf/6-311G(2d,2p) 6D 10F UNITS=AU scf=tight Gfinput PUNCH=MO
 --------------------------------------------------------------
 1/20=1,38=1/1;
 2/17=6,18=5,40=1/2;
 3/5=4,6=6,7=202,8=22,11=1,16=1,24=10,25=1,30=1/1,2,3;
 4/7=1/1;
 5/5=2,32=2,38=5/2;
 6/7=2,8=2,9=2,10=2,28=1/1;
 99/5=1,9=1,10=32/99;
 -----------------------------------
 C6H6 SCF CALCULATION. 6311G2P basis
 -----------------------------------
 Symbolic Z-matrix:
 Charge =  0 Multiplicity = 1
 C                    -2.28626   1.31997   0. 
 C                    -2.28626  -1.31997   0. 
 C                     0.       -2.63995   0. 
 C                     2.28626  -1.31997   0. 
 C                     2.28626   1.31997   0. 
 C                     0.        2.63995   0. 
 H                    -4.06028   2.34421   0. 
 H                    -4.06028  -2.34421   0. 
 H                     0.       -4.68841   0. 
 H                     4.06028  -2.34421   0. 
 H                     4.06028   2.34421   0. 
 H                     0.        4.68841   0. 
 
                          Input orientation:                          
 ---------------------------------------------------------------------
 Center     Atomic     Atomic              Coordinates (Angstroms)
 Number     Number      Type              X           Y           Z
 ---------------------------------------------------------------------
    1          6             0       -1.209837    0.698500    0.000000
    2          6             0       -1.209837   -0.698500    0.000000
    3          6             0        0.000000   -1.397000    0.000000
    4          6             0        1.209837   -0.698500    0.000000
    5          6             0        1.209837    0.698500    0.000000
    6          6             0        0.000000    1.397000    0.000000
    7          1             0       -2.148609    1.240500    0.000000
    8          1             0       -2.148609   -1.240500    0.000000
    9          1             0        0.000000   -2.481000    0.000000
   10          1             0        2.148609   -1.240500    0.000000
   11          1             0        2.148609    1.240500    0.000000
   12          1             0        0.000000    2.481000    0.000000
 ---------------------------------------------------------------------
                    Distance matrix (angstroms):
                    1          2          3          4          5
     1  C    0.000000
     2  C    1.397000   0.000000
     3  C    2.419675   1.397000   0.000000
     4  C    2.794000   2.419675   1.397000   0.000000
     5  C    2.419675   2.794000   2.419675   1.397000   0.000000
     6  C    1.397000   2.419675   2.794000   2.419675   1.397000
     7  H    1.084000   2.154301   3.401900   3.878000   3.401900
     8  H    2.154301   1.084000   2.154301   3.401900   3.878000
     9  H    3.401900   2.154301   1.084000   2.154301   3.401900
    10  H    3.878000   3.401900   2.154301   1.084000   2.154301
    11  H    3.401900   3.878000   3.401900   2.154301   1.084000
    12  H    2.154301   3.401900   3.878000   3.401900   2.154301
                    6          7          8          9         10
     6  C    0.000000
     7  H    2.154301   0.000000
     8  H    3.401900   2.481000   0.000000
     9  H    3.878000   4.297218   2.481000   0.000000
    10  H    3.401900   4.962000   4.297218   2.481000   0.000000
    11  H    2.154301   4.297218   4.962000   4.297218   2.481000
    12  H    1.084000   2.481000   4.297218   4.962000   4.297218
                   11         12
    11  H    0.000000
    12  H    2.481000   0.000000
 Stoichiometry    C6H6
 Framework group  D6H[3C2'(HC.CH)]
 Deg. of freedom     2
 Full point group                 D6H     NOp  24
 Largest Abelian subgroup         D2H     NOp   8
 Largest concise Abelian subgroup D2      NOp   4
                         Standard orientation:                         
 ---------------------------------------------------------------------
 Center     Atomic     Atomic              Coordinates (Angstroms)
 Number     Number      Type              X           Y           Z
 ---------------------------------------------------------------------
    1          6             0        0.000000    1.397000    0.000000
    2          6             0        1.209837    0.698500    0.000000
    3          6             0        1.209837   -0.698500    0.000000
    4          6             0        0.000000   -1.397000    0.000000
    5          6             0       -1.209837   -0.698500    0.000000
    6          6             0       -1.209837    0.698500    0.000000
    7          1             0        0.000000    2.481000    0.000000
    8          1             0        2.148609    1.240500    0.000000
    9          1             0        2.148609   -1.240500    0.000000
   10          1             0        0.000000   -2.481000    0.000000
   11          1             0       -2.148609   -1.240500    0.000000
   12          1             0       -2.148609    1.240500    0.000000
 ---------------------------------------------------------------------
 Rotational constants (GHZ):      5.6868188      5.6868188      2.8434094
 Standard basis: 6-311G(2d,2p) (6D, 10F)
 AO basis set in the form of general basis input:
  1 0
 S   6 1.00       0.000000000000
      0.4563240000D+04  0.1966650249D-02
      0.6820240000D+03  0.1523060193D-01
      0.1549730000D+03  0.7612690966D-01
      0.4445530000D+02  0.2608010331D+00
      0.1302900000D+02  0.6164620782D+00
      0.1827730000D+01  0.2210060280D+00
 SP   3 1.00       0.000000000000
      0.2096420000D+02  0.1146600807D+00  0.4024869267D-01
      0.4803310000D+01  0.9199996477D+00  0.2375939567D+00
      0.1459330000D+01 -0.3030682134D-02  0.8158538515D+00
 SP   1 1.00       0.000000000000
      0.4834560000D+00  0.1000000000D+01  0.1000000000D+01
 SP   1 1.00       0.000000000000
      0.1455850000D+00  0.1000000000D+01  0.1000000000D+01
 D   1 1.00       0.000000000000
      0.1252000000D+01  0.1000000000D+01
 D   1 1.00       0.000000000000
      0.3130000000D+00  0.1000000000D+01
 ****
  2 0
 S   6 1.00       0.000000000000
      0.4563240000D+04  0.1966650249D-02
      0.6820240000D+03  0.1523060193D-01
      0.1549730000D+03  0.7612690966D-01
      0.4445530000D+02  0.2608010331D+00
      0.1302900000D+02  0.6164620782D+00
      0.1827730000D+01  0.2210060280D+00
 SP   3 1.00       0.000000000000
      0.2096420000D+02  0.1146600807D+00  0.4024869267D-01
      0.4803310000D+01  0.9199996477D+00  0.2375939567D+00
      0.1459330000D+01 -0.3030682134D-02  0.8158538515D+00
 SP   1 1.00       0.000000000000
      0.4834560000D+00  0.1000000000D+01  0.1000000000D+01
 SP   1 1.00       0.000000000000
      0.1455850000D+00  0.1000000000D+01  0.1000000000D+01
 D   1 1.00       0.000000000000
      0.1252000000D+01  0.1000000000D+01
 D   1 1.00       0.000000000000
      0.3130000000D+00  0.1000000000D+01
 ****
  3 0
 S   6 1.00       0.000000000000
      0.4563240000D+04  0.1966650249D-02
      0.6820240000D+03  0.1523060193D-01
      0.1549730000D+03  0.7612690966D-01
      0.4445530000D+02  0.2608010331D+00
      0.1302900000D+02  0.6164620782D+00
      0.1827730000D+01  0.2210060280D+00
 SP   3 1.00       0.000000000000
      0.2096420000D+02  0.1146600807D+00  0.4024869267D-01
      0.4803310000D+01  0.9199996477D+00  0.2375939567D+00
      0.1459330000D+01 -0.3030682134D-02  0.8158538515D+00
 SP   1 1.00       0.000000000000
      0.4834560000D+00  0.1000000000D+01  0.1000000000D+01
 SP   1 1.00       0.000000000000
      0.1455850000D+00  0.1000000000D+01  0.1000000000D+01
 D   1 1.00       0.000000000000
      0.1252000000D+01  0.1000000000D+01
 D   1 1.00       0.000000000000
      0.3130000000D+00  0.1000000000D+01
 ****
  4 0
 S   6 1.00       0.000000000000
      0.4563240000D+04  0.1966650249D-02
      0.6820240000D+03  0.1523060193D-01
      0.1549730000D+03  0.7612690966D-01
      0.4445530000D+02  0.2608010331D+00
      0.1302900000D+02  0.6164620782D+00
      0.1827730000D+01  0.2210060280D+00
 SP   3 1.00       0.000000000000
      0.2096420000D+02  0.1146600807D+00  0.4024869267D-01
      0.4803310000D+01  0.9199996477D+00  0.2375939567D+00
      0.1459330000D+01 -0.3030682134D-02  0.8158538515D+00
 SP   1 1.00       0.000000000000
      0.4834560000D+00  0.1000000000D+01  0.1000000000D+01
 SP   1 1.00       0.000000000000
      0.1455850000D+00  0.1000000000D+01  0.1000000000D+01
 D   1 1.00       0.000000000000
      0.1252000000D+01  0.1000000000D+01
 D   1 1.00       0.000000000000
      0.3130000000D+00  0.1000000000D+01
 ****
  5 0
 S   6 1.00       0.000000000000
      0.4563240000D+04  0.1966650249D-02
      0.6820240000D+03  0.1523060193D-01
      0.1549730000D+03  0.7612690966D-01
      0.4445530000D+02  0.2608010331D+00
      0.1302900000D+02  0.6164620782D+00
      0.1827730000D+01  0.2210060280D+00
 SP   3 1.00       0.000000000000
      0.2096420000D+02  0.1146600807D+00  0.4024869267D-01
      0.4803310000D+01  0.9199996477D+00  0.2375939567D+00
      0.1459330000D+01 -0.3030682134D-02  0.8158538515D+00
 SP   1 1.00       0.000000000000
      0.4834560000D+00  0.1000000000D+01  0.1000000000D+01
 SP   1 1.00       0.000000000000
      0.1455850000D+00  0.1000000000D+01  0.1000000000D+01
 D   1 1.00       0.000000000000
      0.1252000000D+01  0.1000000000D+01
 D   1 1.00       0.000000000000
      0.3130000000D+00  0.1000000000D+01
 ****
  6 0
 S   6 1.00       0.000000000000
      0.4563240000D+04  0.1966650249D-02
      0.6820240000D+03  0.1523060193D-01
      0.1549730000D+03  0.7612690966D-01
      0.4445530000D+02  0.2608010331D+00
      0.1302900000D+02  0.6164620782D+00
      0.1827730000D+01  0.2210060280D+00
 SP   3 1.00       0.000000000000
      0.2096420000D+02  0.1146600807D+00  0.4024869267D-01
      0.4803310000D+01  0.9199996477D+00  0.2375939567D+00
      0.1459330000D+01 -0.3030682134D-02  0.8158538515D+00
 SP   1 1.00       0.000000000000
      0.4834560000D+00  0.1000000000D+01  0.1000000000D+01
 SP   1 1.00       0.000000000000
      0.1455850000D+00  0.1000000000D+01  0.1000000000D+01
 D   1 1.00       0.000000000000
      0.1252000000D+01  0.1000000000D+01
 D   1 1.00       0.000000000000
      0.3130000000D+00  0.1000000000D+01
 ****
  7 0
 S   3 1.00       0.000000000000
      0.3386500000D+02  0.2549381454D-01
      0.5094790000D+01  0.1903731086D+00
      0.1158790000D+01  0.8521614860D+00
 S   1 1.00       0.000000000000
      0.3258400000D+00  0.1000000000D+01
 S   1 1.00       0.000000000000
      0.1027410000D+00  0.1000000000D+01
 P   1 1.00       0.000000000000
      0.1500000000D+01  0.1000000000D+01
 P   1 1.00       0.000000000000
      0.3750000000D+00  0.1000000000D+01
 ****
  8 0
 S   3 1.00       0.000000000000
      0.3386500000D+02  0.2549381454D-01
      0.5094790000D+01  0.1903731086D+00
      0.1158790000D+01  0.8521614860D+00
 S   1 1.00       0.000000000000
      0.3258400000D+00  0.1000000000D+01
 S   1 1.00       0.000000000000
      0.1027410000D+00  0.1000000000D+01
 P   1 1.00       0.000000000000
      0.1500000000D+01  0.1000000000D+01
 P   1 1.00       0.000000000000
      0.3750000000D+00  0.1000000000D+01
 ****
  9 0
 S   3 1.00       0.000000000000
      0.3386500000D+02  0.2549381454D-01
      0.5094790000D+01  0.1903731086D+00
      0.1158790000D+01  0.8521614860D+00
 S   1 1.00       0.000000000000
      0.3258400000D+00  0.1000000000D+01
 S   1 1.00       0.000000000000
      0.1027410000D+00  0.1000000000D+01
 P   1 1.00       0.000000000000
      0.1500000000D+01  0.1000000000D+01
 P   1 1.00       0.000000000000
      0.3750000000D+00  0.1000000000D+01
 ****
 10 0
 S   3 1.00       0.000000000000
      0.3386500000D+02  0.2549381454D-01
      0.5094790000D+01  0.1903731086D+00
      0.1158790000D+01  0.8521614860D+00
 S   1 1.00       0.000000000000
      0.3258400000D+00  0.1000000000D+01
 S   1 1.00       0.000000000000
      0.1027410000D+00  0.1000000000D+01
 P   1 1.00       0.000000000000
      0.1500000000D+01  0.1000000000D+01
 P   1 1.00       0.000000000000
      0.3750000000D+00  0.1000000000D+01
 ****
 11 0
 S   3 1.00       0.000000000000
      0.3386500000D+02  0.2549381454D-01
      0.5094790000D+01  0.1903731086D+00
      0.1158790000D+01  0.8521614860D+00
 S   1 1.00       0.000000000000
      0.3258400000D+00  0.1000000000D+01
 S   1 1.00       0.000000000000
      0.1027410000D+00  0.1000000000D+01
 P   1 1.00       0.000000000000
      0.1500000000D+01  0.1000000000D+01
 P   1 1.00       0.000000000000
      0.3750000000D+00  0.1000000000D+01
 ****
 12 0
 S   3 1.00       0.000000000000
      0.3386500000D+02  0.2549381454D-01
      0.5094790000D+01  0.1903731086D+00
      0.1158790000D+01  0.8521614860D+00
 S   1 1.00       0.000000000000
      0.3258400000D+00  0.1000000000D+01
 S   1 1.00       0.000000000000
      0.1027410000D+00  0.1000000000D+01
 P   1 1.00       0.000000000000
      0.1500000000D+01  0.1000000000D+01
 P   1 1.00       0.000000000000
      0.3750000000D+00  0.1000000000D+01
 ****

 There are    43 symmetry adapted basis functions of AG  symmetry.
 There are    32 symmetry adapted basis functions of B1G symmetry.
 There are    11 symmetry adapted basis functions of B2G symmetry.
 There are    16 symmetry adapted basis functions of B3G symmetry.
 There are    11 symmetry adapted basis functions of AU  symmetry.
 There are    16 symmetry adapted basis functions of B1U symmetry.
 There are    43 symmetry adapted basis functions of B2U symmetry.
 There are    32 symmetry adapted basis functions of B3U symmetry.
 Integral buffers will be    131072 words long.
 Raffenetti 1 integral format.
 Two-electron integral symmetry is turned on.
   204 basis functions,   294 primitive gaussians,   204 cartesian basis functions
    21 alpha electrons       21 beta electrons
       nuclear repulsion energy       203.2243472071 Hartrees.
 NAtoms=   12 NActive=   12 NUniq=    2 SFac= 5.66D+00 NAtFMM=   60 Big=F
 One-electron integrals computed using PRISM.
 NBasis=   204 RedAO= T  NBF=    43    32    11    16    11    16    43    32
 NBsUse=   204 1.00D-06 NBFU=    43    32    11    16    11    16    43    32
 Harris functional with IExCor=  205 diagonalized for initial guess.
 ExpMin= 1.03D-01 ExpMax= 4.56D+03 ExpMxC= 6.82D+02 IAcc=1 IRadAn=         1 AccDes= 1.00D-06
 HarFok:  IExCor= 205 AccDes= 1.00D-06 IRadAn=         1 IDoV=1
 ScaDFX=  1.000000  1.000000  1.000000  1.000000
 Initial guess orbital symmetries:
       Occupied  (A1G) (E1U) (E1U) (E2G) (E2G) (B1U) (A1G) (E1U)
                 (E1U) (E2G) (E2G) (A1G) (B2U) (B1U) (E1U) (E1U)
                 (A2U) (E2G) (E2G) (E1G) (E1G)
       Virtual   (E2U) (E2U) (B2G) (A1G) (E1U) (E1U) (E2G) (E2G)
                 (B1U) (A1G) (E1U) (E1U) (E2G) (E2G) (E1U) (E1U)
                 (A1G) (B2U) (A2U) (E2G) (E2G) (B1U) (E1G) (E1G)
                 (A2U) (A2G) (E1U) (E1U) (E2U) (E2U) (E2G) (E2G)
                 (A1G) (B1U) (E2G) (E2G) (B2G) (E1U) (E1U) (B1G)
                 (E1G) (E1G) (B1U) (A1G) (E2U) (E2U) (A2G) (E1U)
                 (E1U) (A1G) (A2U) (E2G) (E2G) (B2U) (E2U) (E2U)
                 (E1U) (E1U) (E2G) (E2G) (B2G) (E1G) (E1G) (B1U)
                 (A1G) (E1U) (E1U) (E1G) (E1G) (E2G) (E2G) (E1U)
                 (E1U) (B2U) (E1U) (E1U) (E2G) (E2G) (B1U) (E2U)
                 (E2U) (A2G) (A1G) (E2G) (E2G) (B1U) (B2G) (A1U)
                 (E1U) (E1U) (A2G) (E2G) (E2G) (E1U) (E1U) (B1U)
                 (E2G) (E2G) (B1U) (A2U) (A1G) (E1G) (E1G) (E2U)
                 (E2U) (B2U) (E1U) (E1U) (A2U) (B1G) (E2G) (E2G)
                 (B2G) (A1G) (A1G) (B2U) (E1G) (E1G) (E2G) (E2G)
                 (E2U) (E2U) (E1U) (E1U) (E1U) (E1U) (E2G) (E2G)
                 (B1U) (E1G) (E1G) (E2U) (E2U) (A1G) (E1U) (E1U)
                 (E2G) (E2G) (B2G) (A1U) (B1U) (A2G) (A2U) (E1G)
                 (E1G) (E2G) (E2G) (E1U) (E1U) (E2U) (E2U) (B2U)
                 (B2G) (B1U) (E1U) (E1U) (E2G) (E2G) (A2G) (E2G)
                 (E2G) (B1U) (E1U) (E1U) (A1G) (E1U) (E1U) (E2G)
                 (E2G) (A2G) (B1U) (A1G) (E1U) (E1U) (E2G) (E2G)
                 (B1U) (A1G) (E1U) (E1U) (E2G) (E2G) (B1U)
 The electronic state of the initial guess is 1-A1G.
 Requested convergence on RMS density matrix=1.00D-08 within 128 cycles.
 Requested convergence on MAX density matrix=1.00D-06.
 Requested convergence on             energy=1.00D-06.
 No special actions if energy rises.
 Integral accuracy reduced to 1.0D-05 until final iterations.
 Initial convergence to 1.0D-05 achieved.  Increase integral accuracy.
 SCF Done:  E(RHF) =  -230.764369161     A.U. after   10 cycles
             Convg  =    0.8050D-08             -V/T =  2.0016
             S**2   =   0.0000

 **********************************************************************

            Population analysis using the SCF density.

 **********************************************************************

 Orbital symmetries:
       Occupied  (A1G) (E1U) (E1U) (E2G) (E2G) (B1U) (A1G) (E1U)
                 (E1U) (E2G) (E2G) (A1G) (B1U) (B2U) (E1U) (E1U)
                 (A2U) (E2G) (E2G) (E1G) (E1G)
       Virtual   (E2U) (E2U) (A1G) (E1U) (E1U) (E2G) (E2G) (B1U)
                 (A1G) (B2G) (E2G) (E2G) (E1U) (E1U) (E1U) (E1U)
                 (A1G) (B2U) (A2U) (E2G) (E2G) (E1G) (E1G) (B1U)
                 (E1U) (E1U) (A2U) (E2G) (E2G) (E2U) (E2U) (A2G)
                 (A1G) (B1U) (E2G) (E2G) (B2G) (E1U) (E1U) (B1G)
                 (E1G) (E1G) (E2U) (E2U) (E1U) (E1U) (B1U) (A1G)
                 (A2G) (A2U) (A1G) (E2G) (E2G) (B2U) (B2G) (E1U)
                 (E1U) (E2U) (E2U) (E2G) (E2G) (B1U) (E1G) (E1G)
                 (E1U) (E1U) (E2G) (E2G) (A1G) (B2U) (E1U) (E1U)
                 (E1G) (E1G) (E1U) (E1U) (E2G) (E2G) (B1U) (A2G)
                 (E2U) (E2U) (A1G) (E2G) (E2G) (B1U) (B2G) (A1U)
                 (E1U) (E1U) (A2G) (E2G) (E2G) (E1U) (E1U) (B1U)
                 (B1U) (E2G) (E2G) (A2U) (A1G) (E1G) (E1G) (E2U)
                 (E2U) (E1U) (E1U) (A2U) (B2U) (B1G) (E2G) (E2G)
                 (A1G) (B2G) (A1G) (B2U) (E1G) (E1G) (E2G) (E2G)
                 (E1U) (E1U) (E2U) (E2U) (E1U) (E1U) (B1U) (E2G)
                 (E2G) (E2U) (E2U) (E1G) (E1G) (B2G) (A1G) (E2G)
                 (E2G) (E1U) (E1U) (B1U) (A1U) (A2U) (A2G) (E1G)
                 (E1G) (B2U) (E2U) (E2U) (B2G) (E2G) (E2G) (E1U)
                 (E1U) (E1U) (E1U) (B1U) (E2G) (E2G) (A2G) (E2G)
                 (E2G) (B1U) (E1U) (E1U) (A1G) (E1U) (E1U) (E2G)
                 (E2G) (B1U) (A2G) (A1G) (E1U) (E1U) (E2G) (E2G)
                 (B1U) (A1G) (E1U) (E1U) (E2G) (E2G) (B1U)
 The electronic state is 1-A1G.
 Alpha  occ. eigenvalues --  -11.23380 -11.23323 -11.23323 -11.23201 -11.23201
 Alpha  occ. eigenvalues --  -11.23141  -1.14471  -1.01015  -1.01015  -0.82011
 Alpha  occ. eigenvalues --   -0.82011  -0.70508  -0.64130  -0.61495  -0.58433
 Alpha  occ. eigenvalues --   -0.58433  -0.49702  -0.49188  -0.49188  -0.33214
 Alpha  occ. eigenvalues --   -0.33214
 Alpha virt. eigenvalues --    0.13511   0.13511   0.14607   0.17459   0.17459
 Alpha virt. eigenvalues --    0.20803   0.20803   0.23498   0.32936   0.34354
 Alpha virt. eigenvalues --    0.40411   0.40411   0.42471   0.42471   0.46125
 Alpha virt. eigenvalues --    0.46125   0.47393   0.48353   0.53704   0.55884
 Alpha virt. eigenvalues --    0.55884   0.58546   0.58546   0.59026   0.63124
 Alpha virt. eigenvalues --    0.63124   0.63930   0.67270   0.67270   0.70120
 Alpha virt. eigenvalues --    0.70120   0.70283   0.70538   0.70806   0.77636
 Alpha virt. eigenvalues --    0.77636   0.78630   0.82289   0.82289   0.84011
 Alpha virt. eigenvalues --    0.86132   0.86132   0.95816   0.95816   0.96797
 Alpha virt. eigenvalues --    0.96797   0.99091   1.00007   1.00789   1.11429
 Alpha virt. eigenvalues --    1.12239   1.12398   1.12398   1.18599   1.23060
 Alpha virt. eigenvalues --    1.23069   1.23069   1.23610   1.23610   1.25596
 Alpha virt. eigenvalues --    1.25596   1.26388   1.29259   1.29259   1.36827
 Alpha virt. eigenvalues --    1.36827   1.44404   1.44404   1.44609   1.48408
 Alpha virt. eigenvalues --    1.51282   1.51282   1.51916   1.51916   1.56118
 Alpha virt. eigenvalues --    1.56118   1.56913   1.56913   1.58222   1.58265
 Alpha virt. eigenvalues --    1.59755   1.59755   1.67432   1.68627   1.68627
 Alpha virt. eigenvalues --    1.73517   1.78808   1.82227   1.97322   1.97322
 Alpha virt. eigenvalues --    2.09918   2.25145   2.25145   2.26601   2.26601
 Alpha virt. eigenvalues --    2.32039   2.54936   2.57617   2.57617   2.96049
 Alpha virt. eigenvalues --    2.99477   3.13979   3.13979   3.18752   3.18752
 Alpha virt. eigenvalues --    3.25113   3.25113   3.34159   3.34948   3.40329
 Alpha virt. eigenvalues --    3.43864   3.43864   3.45622   3.53832   3.55564
 Alpha virt. eigenvalues --    3.61215   3.64307   3.64307   3.67925   3.67925
 Alpha virt. eigenvalues --    3.68517   3.68517   3.68797   3.68797   3.72695
 Alpha virt. eigenvalues --    3.72695   3.82753   3.88873   3.88873   3.89858
 Alpha virt. eigenvalues --    3.89858   3.93648   3.93648   4.02726   4.03527
 Alpha virt. eigenvalues --    4.03651   4.03651   4.05221   4.05221   4.12131
 Alpha virt. eigenvalues --    4.12669   4.26753   4.28669   4.34223   4.34223
 Alpha virt. eigenvalues --    4.35189   4.36983   4.36983   4.39513   4.41092
 Alpha virt. eigenvalues --    4.41092   4.46653   4.46653   4.55008   4.55008
 Alpha virt. eigenvalues --    4.58611   4.61443   4.61443   4.70327   4.85166
 Alpha virt. eigenvalues --    4.85166   4.86506   5.02840   5.02840   5.02906
 Alpha virt. eigenvalues --    5.46296   5.46296   5.47081   5.47081   5.67215
 Alpha virt. eigenvalues --    5.73671   8.90949   9.14654   9.14654   9.40853
 Alpha virt. eigenvalues --    9.40853   9.57385  34.54628  36.53333  36.53333
 Alpha virt. eigenvalues --   36.72104  36.72104  37.72846
          Condensed to atoms (all electrons):
              1          2          3          4          5          6
     1  C    4.675968   0.560317  -0.035053  -0.027060  -0.035053   0.560317
     2  C    0.560317   4.675968   0.560317  -0.035053  -0.027060  -0.035053
     3  C   -0.035053   0.560317   4.675968   0.560317  -0.035053  -0.027060
     4  C   -0.027060  -0.035053   0.560317   4.675968   0.560317  -0.035053
     5  C   -0.035053  -0.027060  -0.035053   0.560317   4.675968   0.560317
     6  C    0.560317  -0.035053  -0.027060  -0.035053   0.560317   4.675968
     7  H    0.431270  -0.027982   0.003681  -0.000185   0.003681  -0.027982
     8  H   -0.027982   0.431270  -0.027982   0.003681  -0.000185   0.003681
     9  H    0.003681  -0.027982   0.431270  -0.027982   0.003681  -0.000185
    10  H   -0.000185   0.003681  -0.027982   0.431270  -0.027982   0.003681
    11  H    0.003681  -0.000185   0.003681  -0.027982   0.431270  -0.027982
    12  H   -0.027982   0.003681  -0.000185   0.003681  -0.027982   0.431270
              7          8          9         10         11         12
     1  C    0.431270  -0.027982   0.003681  -0.000185   0.003681  -0.027982
     2  C   -0.027982   0.431270  -0.027982   0.003681  -0.000185   0.003681
     3  C    0.003681  -0.027982   0.431270  -0.027982   0.003681  -0.000185
     4  C   -0.000185   0.003681  -0.027982   0.431270  -0.027982   0.003681
     5  C    0.003681  -0.000185   0.003681  -0.027982   0.431270  -0.027982
     6  C   -0.027982   0.003681  -0.000185   0.003681  -0.027982   0.431270
     7  H    0.543745  -0.003872  -0.000230   0.000059  -0.000230  -0.003872
     8  H   -0.003872   0.543745  -0.003872  -0.000230   0.000059  -0.000230
     9  H   -0.000230  -0.003872   0.543745  -0.003872  -0.000230   0.000059
    10  H    0.000059  -0.000230  -0.003872   0.543745  -0.003872  -0.000230
    11  H   -0.000230   0.000059  -0.000230  -0.003872   0.543745  -0.003872
    12  H   -0.003872  -0.000230   0.000059  -0.000230  -0.003872   0.543745
 Mulliken atomic charges:
              1
     1  C   -0.081918
     2  C   -0.081918
     3  C   -0.081918
     4  C   -0.081918
     5  C   -0.081918
     6  C   -0.081918
     7  H    0.081918
     8  H    0.081918
     9  H    0.081918
    10  H    0.081918
    11  H    0.081918
    12  H    0.081918
 Sum of Mulliken charges=   0.00000
 Atomic charges with hydrogens summed into heavy atoms:
              1
     1  C    0.000000
     2  C    0.000000
     3  C    0.000000
     4  C    0.000000
     5  C    0.000000
     6  C    0.000000
     7  H    0.000000
     8  H    0.000000
     9  H    0.000000
    10  H    0.000000
    11  H    0.000000
    12  H    0.000000
 Sum of Mulliken charges=   0.00000
 Electronic spatial extent (au):  <R**2>=   459.7168
 Charge=     0.0000 electrons
 Dipole moment (field-independent basis, Debye):
    X=     0.0000    Y=     0.0000    Z=     0.0000  Tot=     0.0000
 Quadrupole moment (field-independent basis, Debye-Ang):
   XX=   -31.5770   YY=   -31.5770   ZZ=   -40.3251
   XY=     0.0000   XZ=     0.0000   YZ=     0.0000
 Traceless Quadrupole moment (field-independent basis, Debye-Ang):
   XX=     2.9160   YY=     2.9160   ZZ=    -5.8321
   XY=     0.0000   XZ=     0.0000   YZ=     0.0000
 Octapole moment (field-independent basis, Debye-Ang**2):
  XXX=     0.0000  YYY=     0.0000  ZZZ=     0.0000  XYY=     0.0000
  XXY=     0.0000  XXZ=     0.0000  XZZ=     0.0000  YZZ=     0.0000
  YYZ=     0.0000  XYZ=     0.0000
 Hexadecapole moment (field-independent basis, Debye-Ang**3):
 XXXX=  -269.1183 YYYY=  -269.1183 ZZZZ=   -45.8547 XXXY=     0.0000
 XXXZ=     0.0000 YYYX=     0.0000 YYYZ=     0.0000 ZZZX=     0.0000
 ZZZY=     0.0000 XXYY=   -89.7061 XXZZ=   -63.2905 YYZZ=   -63.2905
 XXYZ=     0.0000 YYXZ=     0.0000 ZZXY=     0.0000
 N-N= 2.032243472071D+02 E-N=-9.434234383064D+02  KE= 2.303979282449D+02
 Symmetry AG   KE= 7.440097571009D+01
 Symmetry B1G  KE= 3.766509608322D+01
 Symmetry B2G  KE= 2.064199730505D+00
 Symmetry B3G  KE= 2.064199730505D+00
 Symmetry AU   KE=-1.857799289405D-16
 Symmetry B1U  KE= 1.745974846120D+00
 Symmetry B2U  KE= 7.205543508129D+01
 Symmetry B3U  KE= 4.040204706314D+01
 1\1\GINC-TITAN\SP\RHF\6-311G(2d,2p)\C6H6\RRL581A\30-May-2005\0\\# RHF/
 6-311G(2D,2P) 6D 10F UNITS=AU SCF=TIGHT GFINPUT PUNCH=MO\\C6H6 SCF CAL
 CULATION. 6311G2P basis\\0,1\C,0,-1.2098373986,0.6984999447,0.\C,0,-1.
 2098373986,-0.6984999447,0.\C,0,0.,-1.3969998946,0.\C,0,1.2098373986,-
 0.6984999447,0.\C,0,1.2098373986,0.6984999447,0.\C,0,0.,1.3969998946,0
 .\H,0,-2.148608863,1.2404999052,0.\H,0,-2.148608863,-1.2404999052,0.\H
 ,0,0.,-2.4809998104,0.\H,0,2.148608863,-1.2404999052,0.\H,0,2.14860886
 3,1.2404999052,0.\H,0,0.,2.4809998104,0.\\Version=SGI64-G03RevC.02\Sta
 te=1-A1G\HF=-230.7643692\RMSD=8.050e-09\Dipole=0.,0.,0.\PG=D06H [3C2'(
 H1C1.C1H1)]\\@


 THOSE WITH THE GOLD MAKE THE RULES.

             -- PETER'S GOLDEN RULE
 Job cpu time:  0 days  0 hours  1 minutes 31.6 seconds.
 File lengths (MBytes):  RWF=     36 Int=      0 D2E=      0 Chk=     11 Scr=      1
 Normal termination of Gaussian 03 at Mon May 30 21:10:48 2005.
(5D15.8)
    1 Alpha MO OE=-0.11233798D+02
 0.22997427D+00 0.19005242D+00 0.00000000D+00-0.76021265D-05 0.00000000D+00
 0.26290931D-02 0.00000000D+00-0.24092877D-03 0.00000000D+00 0.11229447D-02
 0.00000000D+00 0.98491570D-04 0.00000000D+00-0.19149585D-03-0.33519501D-03
-0.53790253D-03 0.00000000D+00 0.00000000D+00 0.00000000D+00-0.58808685D-03
-0.53217444D-03-0.45818555D-03 0.00000000D+00 0.00000000D+00 0.00000000D+00
 0.22997427D+00 0.19005242D+00-0.65836347D-05-0.38010632D-05 0.00000000D+00
 0.26290931D-02-0.20865044D-03-0.12046439D-03 0.00000000D+00 0.11229447D-02
 0.85296201D-04 0.49245785D-04 0.00000000D+00-0.29927022D-03-0.22742064D-03
-0.53790253D-03-0.71849585D-04 0.00000000D+00 0.00000000D+00-0.54615255D-03
-0.57410875D-03-0.45818555D-03 0.27956204D-04 0.00000000D+00 0.00000000D+00
 0.22997427D+00 0.19005242D+00-0.65836347D-05 0.38010632D-05 0.00000000D+00
 0.26290931D-02-0.20865044D-03 0.12046439D-03 0.00000000D+00 0.11229447D-02
 0.85296201D-04-0.49245785D-04 0.00000000D+00-0.29927022D-03-0.22742064D-03
-0.53790253D-03 0.71849585D-04 0.00000000D+00 0.00000000D+00-0.54615255D-03
-0.57410875D-03-0.45818555D-03-0.27956204D-04 0.00000000D+00 0.00000000D+00
 0.22997427D+00 0.19005242D+00 0.00000000D+00 0.76021265D-05 0.00000000D+00
 0.26290931D-02 0.00000000D+00 0.24092877D-03 0.00000000D+00 0.11229447D-02
 0.00000000D+00-0.98491570D-04 0.00000000D+00-0.19149585D-03-0.33519501D-03
-0.53790253D-03 0.00000000D+00 0.00000000D+00 0.00000000D+00-0.58808685D-03
-0.53217444D-03-0.45818555D-03 0.00000000D+00 0.00000000D+00 0.00000000D+00
 0.22997427D+00 0.19005242D+00 0.65836347D-05 0.38010632D-05 0.00000000D+00
 0.26290931D-02 0.20865044D-03 0.12046439D-03 0.00000000D+00 0.11229447D-02
-0.85296201D-04-0.49245785D-04 0.00000000D+00-0.29927022D-03-0.22742064D-03
-0.53790253D-03-0.71849585D-04 0.00000000D+00 0.00000000D+00-0.54615255D-03
-0.57410875D-03-0.45818555D-03 0.27956204D-04 0.00000000D+00 0.00000000D+00
 0.22997427D+00 0.19005242D+00 0.65836347D-05-0.38010632D-05 0.00000000D+00
 0.26290931D-02 0.20865044D-03-0.12046439D-03 0.00000000D+00 0.11229447D-02
-0.85296201D-04 0.49245785D-04 0.00000000D+00-0.29927022D-03-0.22742064D-03
-0.53790253D-03 0.71849585D-04 0.00000000D+00 0.00000000D+00-0.54615255D-03
-0.57410875D-03-0.45818555D-03-0.27956204D-04 0.00000000D+00 0.00000000D+00
 0.13144988D-03 0.13969633D-03-0.16023539D-03 0.00000000D+00-0.43239990D-04
 0.00000000D+00 0.00000000D+00-0.15210353D-04 0.00000000D+00 0.13144988D-03
 0.13969633D-03-0.16023539D-03-0.37446930D-04-0.21619995D-04 0.00000000D+00
-0.13172552D-04-0.76051763D-05 0.00000000D+00 0.13144988D-03 0.13969633D-03
-0.16023539D-03-0.37446930D-04 0.21619995D-04 0.00000000D+00-0.13172552D-04
 0.76051763D-05 0.00000000D+00 0.13144988D-03 0.13969633D-03-0.16023539D-03
 0.00000000D+00 0.43239990D-04 0.00000000D+00 0.00000000D+00 0.15210353D-04
 0.00000000D+00 0.13144988D-03 0.13969633D-03-0.16023539D-03 0.37446930D-04
 0.21619995D-04 0.00000000D+00 0.13172552D-04 0.76051763D-05 0.00000000D+00
 0.13144988D-03 0.13969633D-03-0.16023539D-03 0.37446930D-04-0.21619995D-04
 0.00000000D+00 0.13172552D-04-0.76051763D-05 0.00000000D+00
    2 Alpha MO OE=-0.11233231D+02
 0.32529742D+00 0.26875077D+00 0.00000000D+00 0.94633020D-04 0.00000000D+00
 0.39028642D-02 0.00000000D+00-0.81077681D-03 0.00000000D+00 0.95337208D-03
 0.00000000D+00-0.25511512D-03 0.00000000D+00-0.38424056D-03-0.51394062D-03
-0.86825730D-03 0.00000000D+00 0.00000000D+00 0.00000000D+00-0.10308266D-02
-0.12251221D-02-0.59562344D-03 0.00000000D+00 0.00000000D+00 0.00000000D+00
 0.16264871D+00 0.13437538D+00-0.40193881D-04 0.16425086D-03 0.00000000D+00
 0.19514321D-02-0.39425830D-03-0.12790140D-03 0.00000000D+00 0.47668604D-03
-0.38030166D-03 0.40358668D-03 0.00000000D+00-0.17409992D-03-0.27499067D-03
-0.43412865D-03-0.76863599D-04 0.00000000D+00 0.00000000D+00-0.94259210D-03
-0.18538226D-03-0.29781172D-03 0.18763809D-03 0.00000000D+00 0.00000000D+00
-0.16264871D+00-0.13437538D+00 0.40193881D-04 0.16425086D-03 0.00000000D+00
-0.19514321D-02 0.39425830D-03-0.12790140D-03 0.00000000D+00-0.47668604D-03
 0.38030166D-03 0.40358668D-03 0.00000000D+00 0.17409992D-03 0.27499067D-03
 0.43412865D-03-0.76863599D-04 0.00000000D+00 0.00000000D+00 0.94259210D-03
 0.18538226D-03 0.29781172D-03 0.18763809D-03 0.00000000D+00 0.00000000D+00
-0.32529742D+00-0.26875077D+00 0.00000000D+00 0.94633020D-04 0.00000000D+00
-0.39028642D-02 0.00000000D+00-0.81077681D-03 0.00000000D+00-0.95337208D-03
 0.00000000D+00-0.25511512D-03 0.00000000D+00 0.38424056D-03 0.51394062D-03
 0.86825730D-03 0.00000000D+00 0.00000000D+00 0.00000000D+00 0.10308266D-02
 0.12251221D-02 0.59562344D-03 0.00000000D+00 0.00000000D+00 0.00000000D+00
-0.16264871D+00-0.13437538D+00-0.40193881D-04 0.16425086D-03 0.00000000D+00
-0.19514321D-02-0.39425830D-03-0.12790140D-03 0.00000000D+00-0.47668604D-03
-0.38030166D-03 0.40358668D-03 0.00000000D+00 0.17409992D-03 0.27499067D-03
 0.43412865D-03 0.76863599D-04 0.00000000D+00 0.00000000D+00 0.94259210D-03
 0.18538226D-03 0.29781172D-03-0.18763809D-03 0.00000000D+00 0.00000000D+00
 0.16264871D+00 0.13437538D+00 0.40193881D-04 0.16425086D-03 0.00000000D+00
 0.19514321D-02 0.39425830D-03-0.12790140D-03 0.00000000D+00 0.47668604D-03
 0.38030166D-03 0.40358668D-03 0.00000000D+00-0.17409992D-03-0.27499067D-03
-0.43412865D-03 0.76863599D-04 0.00000000D+00 0.00000000D+00-0.94259210D-03
-0.18538226D-03-0.29781172D-03-0.18763809D-03 0.00000000D+00 0.00000000D+00
 0.17388900D-03 0.10293692D-02-0.99580655D-04 0.00000000D+00-0.89379417D-04
 0.00000000D+00 0.00000000D+00-0.28255251D-03 0.00000000D+00 0.86944502D-04
 0.51468462D-03-0.49790327D-04-0.37188275D-04-0.24967436D-04 0.00000000D+00
-0.13963619D-04-0.25836681D-03 0.00000000D+00-0.86944502D-04-0.51468462D-03
 0.49790327D-04 0.37188275D-04-0.24967436D-04 0.00000000D+00 0.13963619D-04
-0.25836681D-03 0.00000000D+00-0.17388900D-03-0.10293692D-02 0.99580655D-04
 0.00000000D+00-0.89379417D-04 0.00000000D+00 0.00000000D+00-0.28255251D-03
 0.00000000D+00-0.86944502D-04-0.51468462D-03 0.49790327D-04-0.37188275D-04
-0.24967436D-04 0.00000000D+00-0.13963619D-04-0.25836681D-03 0.00000000D+00
 0.86944502D-04 0.51468462D-03-0.49790327D-04 0.37188275D-04-0.24967436D-04
 0.00000000D+00 0.13963619D-04-0.25836681D-03 0.00000000D+00
    3 Alpha MO OE=-0.11233231D+02
 0.00000000D+00 0.00000000D+00 0.18745681D-03 0.00000000D+00 0.00000000D+00
 0.00000000D+00 0.99723734D-04 0.00000000D+00 0.00000000D+00 0.00000000D+00
 0.62315395D-03 0.00000000D+00 0.00000000D+00 0.00000000D+00 0.00000000D+00
 0.00000000D+00-0.10262652D-03 0.00000000D+00 0.00000000D+00 0.00000000D+00
 0.00000000D+00 0.00000000D+00 0.54550821D-03 0.00000000D+00 0.00000000D+00
 0.28171583D+00 0.23274499D+00 0.11783897D-03-0.40193881D-04 0.00000000D+00
 0.33799795D-02-0.58315167D-03-0.39425830D-03 0.00000000D+00 0.82564444D-03
-0.35547851D-04-0.38030166D-03 0.00000000D+00-0.45548969D-03-0.32235803D-03
-0.75193288D-03-0.30505143D-04 0.00000000D+00 0.00000000D+00-0.81435510D-03
-0.11393538D-02-0.51582503D-03-0.22050950D-03 0.00000000D+00 0.00000000D+00
 0.28171583D+00 0.23274499D+00 0.11783897D-03 0.40193881D-04 0.00000000D+00
 0.33799795D-02-0.58315167D-03 0.39425830D-03 0.00000000D+00 0.82564444D-03
-0.35547851D-04 0.38030166D-03 0.00000000D+00-0.45548969D-03-0.32235803D-03
-0.75193288D-03 0.30505143D-04 0.00000000D+00 0.00000000D+00-0.81435510D-03
-0.11393538D-02-0.51582503D-03 0.22050950D-03 0.00000000D+00 0.00000000D+00
 0.00000000D+00 0.00000000D+00 0.18745681D-03 0.00000000D+00 0.00000000D+00
 0.00000000D+00 0.99723734D-04 0.00000000D+00 0.00000000D+00 0.00000000D+00
 0.62315395D-03 0.00000000D+00 0.00000000D+00 0.00000000D+00 0.00000000D+00
 0.00000000D+00 0.10262652D-03 0.00000000D+00 0.00000000D+00 0.00000000D+00
 0.00000000D+00 0.00000000D+00-0.54550821D-03 0.00000000D+00 0.00000000D+00
-0.28171583D+00-0.23274499D+00 0.11783897D-03-0.40193881D-04 0.00000000D+00
-0.33799795D-02-0.58315167D-03-0.39425830D-03 0.00000000D+00-0.82564444D-03
-0.35547851D-04-0.38030166D-03 0.00000000D+00 0.45548969D-03 0.32235803D-03
 0.75193288D-03 0.30505143D-04 0.00000000D+00 0.00000000D+00 0.81435510D-03
 0.11393538D-02 0.51582503D-03 0.22050950D-03 0.00000000D+00 0.00000000D+00
-0.28171583D+00-0.23274499D+00 0.11783897D-03 0.40193881D-04 0.00000000D+00
-0.33799795D-02-0.58315167D-03 0.39425830D-03 0.00000000D+00-0.82564444D-03
-0.35547851D-04 0.38030166D-03 0.00000000D+00 0.45548969D-03 0.32235803D-03
 0.75193288D-03-0.30505143D-04 0.00000000D+00 0.00000000D+00 0.81435510D-03
 0.11393538D-02 0.51582503D-03-0.22050950D-03 0.00000000D+00 0.00000000D+00
 0.00000000D+00 0.00000000D+00 0.00000000D+00-0.34967755D-05 0.00000000D+00
 0.00000000D+00-0.25030491D-03 0.00000000D+00 0.00000000D+00 0.15059229D-03
 0.89145992D-03-0.86239377D-04-0.67908757D-04-0.37188275D-04 0.00000000D+00
-0.27449061D-03-0.13963619D-04 0.00000000D+00 0.15059229D-03 0.89145992D-03
-0.86239377D-04-0.67908757D-04 0.37188275D-04 0.00000000D+00-0.27449061D-03
 0.13963619D-04 0.00000000D+00 0.00000000D+00 0.00000000D+00 0.00000000D+00
-0.34967755D-05 0.00000000D+00 0.00000000D+00-0.25030491D-03 0.00000000D+00
 0.00000000D+00-0.15059229D-03-0.89145992D-03 0.86239377D-04-0.67908757D-04
-0.37188275D-04 0.00000000D+00-0.27449061D-03-0.13963619D-04 0.00000000D+00
-0.15059229D-03-0.89145992D-03 0.86239377D-04-0.67908757D-04 0.37188275D-04
 0.00000000D+00-0.27449061D-03 0.13963619D-04 0.00000000D+00
    4 Alpha MO OE=-0.11232006D+02
 0.32540665D+00 0.26889776D+00 0.00000000D+00 0.17705739D-03 0.00000000D+00
 0.22845054D-02 0.00000000D+00-0.45384413D-03 0.00000000D+00 0.34162066D-02
 0.00000000D+00-0.29027374D-03 0.00000000D+00-0.54278563D-03-0.53140438D-03
-0.88660659D-03 0.00000000D+00 0.00000000D+00 0.00000000D+00-0.13901663D-02
-0.22935403D-02-0.11274765D-02 0.00000000D+00 0.00000000D+00 0.00000000D+00
-0.16270332D+00-0.13444888D+00-0.14845058D-03 0.80066553D-04 0.00000000D+00
-0.11422527D-02 0.31485549D-04 0.39930956D-03 0.00000000D+00-0.17081033D-02
 0.15605300D-03 0.19982022D-04 0.00000000D+00 0.34410126D-03 0.19299374D-03
 0.44330329D-03-0.54162924D-04 0.00000000D+00 0.00000000D+00 0.91479756D-03
 0.92705575D-03 0.56373825D-03 0.30521073D-03 0.00000000D+00 0.00000000D+00
-0.16270332D+00-0.13444888D+00-0.14845058D-03-0.80066553D-04 0.00000000D+00
-0.11422527D-02 0.31485549D-04-0.39930956D-03 0.00000000D+00-0.17081033D-02
 0.15605300D-03-0.19982022D-04 0.00000000D+00 0.34410126D-03 0.19299374D-03
 0.44330329D-03 0.54162924D-04 0.00000000D+00 0.00000000D+00 0.91479756D-03
 0.92705575D-03 0.56373825D-03-0.30521073D-03 0.00000000D+00 0.00000000D+00
 0.32540665D+00 0.26889776D+00 0.00000000D+00-0.17705739D-03 0.00000000D+00
 0.22845054D-02 0.00000000D+00 0.45384413D-03 0.00000000D+00 0.34162066D-02
 0.00000000D+00 0.29027374D-03 0.00000000D+00-0.54278563D-03-0.53140438D-03
-0.88660659D-03 0.00000000D+00 0.00000000D+00 0.00000000D+00-0.13901663D-02
-0.22935403D-02-0.11274765D-02 0.00000000D+00 0.00000000D+00 0.00000000D+00
-0.16270332D+00-0.13444888D+00 0.14845058D-03-0.80066553D-04 0.00000000D+00
-0.11422527D-02-0.31485549D-04-0.39930956D-03 0.00000000D+00-0.17081033D-02
-0.15605300D-03-0.19982022D-04 0.00000000D+00 0.34410126D-03 0.19299374D-03
 0.44330329D-03-0.54162924D-04 0.00000000D+00 0.00000000D+00 0.91479756D-03
 0.92705575D-03 0.56373825D-03 0.30521073D-03 0.00000000D+00 0.00000000D+00
-0.16270332D+00-0.13444888D+00 0.14845058D-03 0.80066553D-04 0.00000000D+00
-0.11422527D-02-0.31485549D-04 0.39930956D-03 0.00000000D+00-0.17081033D-02
-0.15605300D-03 0.19982022D-04 0.00000000D+00 0.34410126D-03 0.19299374D-03
 0.44330329D-03 0.54162924D-04 0.00000000D+00 0.00000000D+00 0.91479756D-03
 0.92705575D-03 0.56373825D-03-0.30521073D-03 0.00000000D+00 0.00000000D+00
 0.20243295D-03 0.15421063D-02-0.24228617D-03 0.00000000D+00-0.80888805D-04
 0.00000000D+00 0.00000000D+00-0.46368924D-03 0.00000000D+00-0.10121647D-03
-0.77105316D-03 0.12114308D-03 0.35993274D-04 0.18546625D-04 0.00000000D+00
 0.24088501D-03 0.46464166D-04 0.00000000D+00-0.10121647D-03-0.77105316D-03
 0.12114308D-03 0.35993274D-04-0.18546625D-04 0.00000000D+00 0.24088501D-03
-0.46464166D-04 0.00000000D+00 0.20243295D-03 0.15421063D-02-0.24228617D-03
 0.00000000D+00 0.80888805D-04 0.00000000D+00 0.00000000D+00 0.46368924D-03
 0.00000000D+00-0.10121647D-03-0.77105316D-03 0.12114308D-03-0.35993274D-04
-0.18546625D-04 0.00000000D+00-0.24088501D-03-0.46464166D-04 0.00000000D+00
-0.10121647D-03-0.77105316D-03 0.12114308D-03-0.35993274D-04 0.18546625D-04
 0.00000000D+00-0.24088501D-03 0.46464166D-04 0.00000000D+00
    5 Alpha MO OE=-0.11232006D+02
 0.00000000D+00 0.00000000D+00 0.16577453D-03 0.00000000D+00 0.00000000D+00
 0.00000000D+00 0.38113137D-03 0.00000000D+00 0.00000000D+00 0.00000000D+00
-0.70115218D-04 0.00000000D+00 0.00000000D+00 0.00000000D+00 0.00000000D+00
 0.00000000D+00-0.11851295D-03 0.00000000D+00 0.00000000D+00 0.00000000D+00
 0.00000000D+00 0.00000000D+00 0.18329076D-03 0.00000000D+00 0.00000000D+00
 0.28181043D+00 0.23287229D+00 0.91349408D-04 0.14845058D-03 0.00000000D+00
 0.19784397D-02-0.43566594D-03-0.31485549D-04 0.00000000D+00 0.29585217D-02
-0.20017650D-03-0.15605300D-03 0.00000000D+00-0.41823145D-03-0.51204439D-03
-0.76782383D-03-0.24700008D-04 0.00000000D+00 0.00000000D+00-0.18594120D-02
-0.13307715D-02-0.97642329D-03-0.34534972D-03 0.00000000D+00 0.00000000D+00
-0.28181043D+00-0.23287229D+00-0.91349408D-04 0.14845058D-03 0.00000000D+00
-0.19784397D-02 0.43566594D-03-0.31485549D-04 0.00000000D+00-0.29585217D-02
 0.20017650D-03-0.15605300D-03 0.00000000D+00 0.41823145D-03 0.51204439D-03
 0.76782383D-03-0.24700008D-04 0.00000000D+00 0.00000000D+00 0.18594120D-02
 0.13307715D-02 0.97642329D-03-0.34534972D-03 0.00000000D+00 0.00000000D+00
 0.00000000D+00 0.00000000D+00-0.16577453D-03 0.00000000D+00 0.00000000D+00
 0.00000000D+00-0.38113137D-03 0.00000000D+00 0.00000000D+00 0.00000000D+00
 0.70115218D-04 0.00000000D+00 0.00000000D+00 0.00000000D+00 0.00000000D+00
 0.00000000D+00-0.11851295D-03 0.00000000D+00 0.00000000D+00 0.00000000D+00
 0.00000000D+00 0.00000000D+00 0.18329076D-03 0.00000000D+00 0.00000000D+00
 0.28181043D+00 0.23287229D+00-0.91349408D-04-0.14845058D-03 0.00000000D+00
 0.19784397D-02 0.43566594D-03 0.31485549D-04 0.00000000D+00 0.29585217D-02
 0.20017650D-03 0.15605300D-03 0.00000000D+00-0.41823145D-03-0.51204439D-03
-0.76782383D-03-0.24700008D-04 0.00000000D+00 0.00000000D+00-0.18594120D-02
-0.13307715D-02-0.97642329D-03-0.34534972D-03 0.00000000D+00 0.00000000D+00
-0.28181043D+00-0.23287229D+00 0.91349408D-04-0.14845058D-03 0.00000000D+00
-0.19784397D-02-0.43566594D-03 0.31485549D-04 0.00000000D+00-0.29585217D-02
-0.20017650D-03 0.15605300D-03 0.00000000D+00 0.41823145D-03 0.51204439D-03
 0.76782383D-03-0.24700008D-04 0.00000000D+00 0.00000000D+00 0.18594120D-02
 0.13307715D-02 0.97642329D-03-0.34534972D-03 0.00000000D+00 0.00000000D+00
 0.00000000D+00 0.00000000D+00 0.00000000D+00-0.22341009D-05 0.00000000D+00
 0.00000000D+00-0.92610859D-04 0.00000000D+00 0.00000000D+00 0.17531207D-03
 0.13355032D-02-0.20982598D-03-0.60108078D-04-0.35993274D-04 0.00000000D+00
-0.32461421D-03-0.24088501D-03 0.00000000D+00-0.17531207D-03-0.13355032D-02
 0.20982598D-03 0.60108078D-04-0.35993274D-04 0.00000000D+00 0.32461421D-03
-0.24088501D-03 0.00000000D+00 0.00000000D+00 0.00000000D+00 0.00000000D+00
 0.22341009D-05 0.00000000D+00 0.00000000D+00 0.92610859D-04 0.00000000D+00
 0.00000000D+00 0.17531207D-03 0.13355032D-02-0.20982598D-03 0.60108078D-04
 0.35993274D-04 0.00000000D+00 0.32461421D-03 0.24088501D-03 0.00000000D+00
-0.17531207D-03-0.13355032D-02 0.20982598D-03-0.60108078D-04 0.35993274D-04
 0.00000000D+00-0.32461421D-03 0.24088501D-03 0.00000000D+00
    6 Alpha MO OE=-0.11231406D+02
 0.23013998D+00 0.19017402D+00 0.00000000D+00 0.16312689D-03 0.00000000D+00
 0.40380233D-02 0.00000000D+00-0.20828418D-04 0.00000000D+00-0.64455679D-03
 0.00000000D+00 0.99714473D-03 0.00000000D+00-0.44788292D-03-0.42395860D-03
-0.58483140D-03 0.00000000D+00 0.00000000D+00 0.00000000D+00 0.39130276D-03
 0.13845165D-02-0.20787435D-03 0.00000000D+00 0.00000000D+00 0.00000000D+00
-0.23013998D+00-0.19017402D+00-0.14127203D-03-0.81563447D-04 0.00000000D+00
-0.40380233D-02 0.18037939D-04 0.10414209D-04 0.00000000D+00 0.64455679D-03
-0.86355266D-03-0.49857236D-03 0.00000000D+00 0.42993968D-03 0.44190184D-03
 0.58483140D-03-0.11962160D-04 0.00000000D+00 0.00000000D+00-0.11362131D-02
-0.63960620D-03 0.20787435D-03-0.49660689D-03 0.00000000D+00 0.00000000D+00
 0.23013998D+00 0.19017402D+00 0.14127203D-03-0.81563447D-04 0.00000000D+00
 0.40380233D-02-0.18037939D-04 0.10414209D-04 0.00000000D+00-0.64455679D-03
 0.86355266D-03-0.49857236D-03 0.00000000D+00-0.42993968D-03-0.44190184D-03
-0.58483140D-03-0.11962160D-04 0.00000000D+00 0.00000000D+00 0.11362131D-02
 0.63960620D-03-0.20787435D-03-0.49660689D-03 0.00000000D+00 0.00000000D+00
-0.23013998D+00-0.19017402D+00 0.00000000D+00 0.16312689D-03 0.00000000D+00
-0.40380233D-02 0.00000000D+00-0.20828418D-04 0.00000000D+00 0.64455679D-03
 0.00000000D+00 0.99714473D-03 0.00000000D+00 0.44788292D-03 0.42395860D-03
 0.58483140D-03 0.00000000D+00 0.00000000D+00 0.00000000D+00-0.39130276D-03
-0.13845165D-02 0.20787435D-03 0.00000000D+00 0.00000000D+00 0.00000000D+00
 0.23013998D+00 0.19017402D+00-0.14127203D-03-0.81563447D-04 0.00000000D+00
 0.40380233D-02 0.18037939D-04 0.10414209D-04 0.00000000D+00-0.64455679D-03
-0.86355266D-03-0.49857236D-03 0.00000000D+00-0.42993968D-03-0.44190184D-03
-0.58483140D-03 0.11962160D-04 0.00000000D+00 0.00000000D+00 0.11362131D-02
 0.63960620D-03-0.20787435D-03 0.49660689D-03 0.00000000D+00 0.00000000D+00
-0.23013998D+00-0.19017402D+00 0.14127203D-03-0.81563447D-04 0.00000000D+00
-0.40380233D-02-0.18037939D-04 0.10414209D-04 0.00000000D+00 0.64455679D-03
 0.86355266D-03-0.49857236D-03 0.00000000D+00 0.42993968D-03 0.44190184D-03
 0.58483140D-03 0.11962160D-04 0.00000000D+00 0.00000000D+00-0.11362131D-02
-0.63960620D-03 0.20787435D-03 0.49660689D-03 0.00000000D+00 0.00000000D+00
 0.22945309D-03-0.17657362D-02-0.24771828D-03 0.00000000D+00-0.58750819D-04
 0.00000000D+00 0.00000000D+00 0.66831729D-03 0.00000000D+00-0.22945309D-03
 0.17657362D-02 0.24771828D-03 0.50879702D-04 0.29375410D-04 0.00000000D+00
-0.57877975D-03-0.33415864D-03 0.00000000D+00 0.22945309D-03-0.17657362D-02
-0.24771828D-03-0.50879702D-04 0.29375410D-04 0.00000000D+00 0.57877975D-03
-0.33415864D-03 0.00000000D+00-0.22945309D-03 0.17657362D-02 0.24771828D-03
 0.00000000D+00-0.58750819D-04 0.00000000D+00 0.00000000D+00 0.66831729D-03
 0.00000000D+00 0.22945309D-03-0.17657362D-02-0.24771828D-03 0.50879702D-04
 0.29375410D-04 0.00000000D+00-0.57877975D-03-0.33415864D-03 0.00000000D+00
-0.22945309D-03 0.17657362D-02 0.24771828D-03-0.50879702D-04 0.29375410D-04
 0.00000000D+00 0.57877975D-03-0.33415864D-03 0.00000000D+00
    7 Alpha MO OE=-0.11447060D+01
-0.49781287D-01-0.77494706D-01 0.00000000D+00-0.26756611D-01 0.00000000D+00
 0.20611357D+00 0.00000000D+00-0.42973580D-01 0.00000000D+00 0.53997538D-01
 0.00000000D+00-0.91840785D-02 0.00000000D+00 0.11176781D-01 0.62355541D-02
-0.22824778D-02 0.00000000D+00 0.00000000D+00 0.00000000D+00 0.14720092D-01
 0.12775824D-01 0.78231991D-02 0.00000000D+00 0.00000000D+00 0.00000000D+00
-0.49781287D-01-0.77494706D-01-0.23171904D-01-0.13378305D-01 0.00000000D+00
 0.20611357D+00-0.37216212D-01-0.21486790D-01 0.00000000D+00 0.53997538D-01
-0.79536453D-02-0.45920393D-02 0.00000000D+00 0.74708608D-02 0.99414743D-02
-0.22824778D-02-0.24706134D-02 0.00000000D+00 0.00000000D+00 0.13261891D-01
 0.14234025D-01 0.78231991D-02-0.97213443D-03 0.00000000D+00 0.00000000D+00
-0.49781287D-01-0.77494706D-01-0.23171904D-01 0.13378305D-01 0.00000000D+00
 0.20611357D+00-0.37216212D-01 0.21486790D-01 0.00000000D+00 0.53997538D-01
-0.79536453D-02 0.45920393D-02 0.00000000D+00 0.74708608D-02 0.99414743D-02
-0.22824778D-02 0.24706134D-02 0.00000000D+00 0.00000000D+00 0.13261891D-01
 0.14234025D-01 0.78231991D-02 0.97213443D-03 0.00000000D+00 0.00000000D+00
-0.49781287D-01-0.77494706D-01 0.00000000D+00 0.26756611D-01 0.00000000D+00
 0.20611357D+00 0.00000000D+00 0.42973580D-01 0.00000000D+00 0.53997538D-01
 0.00000000D+00 0.91840785D-02 0.00000000D+00 0.11176781D-01 0.62355541D-02
-0.22824778D-02 0.00000000D+00 0.00000000D+00 0.00000000D+00 0.14720092D-01
 0.12775824D-01 0.78231991D-02 0.00000000D+00 0.00000000D+00 0.00000000D+00
-0.49781287D-01-0.77494706D-01 0.23171904D-01 0.13378305D-01 0.00000000D+00
 0.20611357D+00 0.37216212D-01 0.21486790D-01 0.00000000D+00 0.53997538D-01
 0.79536453D-02 0.45920393D-02 0.00000000D+00 0.74708608D-02 0.99414743D-02
-0.22824778D-02-0.24706134D-02 0.00000000D+00 0.00000000D+00 0.13261891D-01
 0.14234025D-01 0.78231991D-02-0.97213443D-03 0.00000000D+00 0.00000000D+00
-0.49781287D-01-0.77494706D-01 0.23171904D-01-0.13378305D-01 0.00000000D+00
 0.20611357D+00 0.37216212D-01-0.21486790D-01 0.00000000D+00 0.53997538D-01
 0.79536453D-02-0.45920393D-02 0.00000000D+00 0.74708608D-02 0.99414743D-02
-0.22824778D-02 0.24706134D-02 0.00000000D+00 0.00000000D+00 0.13261891D-01
 0.14234025D-01 0.78231991D-02 0.97213443D-03 0.00000000D+00 0.00000000D+00
 0.22277358D-01 0.24925404D-01 0.40038931D-02 0.00000000D+00-0.29751675D-02
 0.00000000D+00 0.00000000D+00-0.40596862D-02 0.00000000D+00 0.22277358D-01
 0.24925404D-01 0.40038931D-02-0.25765707D-02-0.14875838D-02 0.00000000D+00
-0.35157914D-02-0.20298431D-02 0.00000000D+00 0.22277358D-01 0.24925404D-01
 0.40038931D-02-0.25765707D-02 0.14875838D-02 0.00000000D+00-0.35157914D-02
 0.20298431D-02 0.00000000D+00 0.22277358D-01 0.24925404D-01 0.40038931D-02
 0.00000000D+00 0.29751675D-02 0.00000000D+00 0.00000000D+00 0.40596862D-02
 0.00000000D+00 0.22277358D-01 0.24925404D-01 0.40038931D-02 0.25765707D-02
 0.14875838D-02 0.00000000D+00 0.35157914D-02 0.20298431D-02 0.00000000D+00
 0.22277358D-01 0.24925404D-01 0.40038931D-02 0.25765707D-02-0.14875838D-02
 0.00000000D+00 0.35157914D-02-0.20298431D-02 0.00000000D+00
    8 Alpha MO OE=-0.10101522D+01
 0.00000000D+00 0.00000000D+00 0.49927458D-01 0.00000000D+00 0.00000000D+00
 0.00000000D+00 0.80881155D-01 0.00000000D+00 0.00000000D+00 0.00000000D+00
 0.27344576D-01 0.00000000D+00 0.00000000D+00 0.00000000D+00 0.00000000D+00
 0.00000000D+00-0.79208281D-02 0.00000000D+00 0.00000000D+00 0.00000000D+00
 0.00000000D+00 0.00000000D+00-0.14165338D-01 0.00000000D+00 0.00000000D+00
-0.59823211D-01-0.93753212D-01 0.32612254D-02-0.26942762D-01 0.00000000D+00
 0.24107975D+00 0.30684164D-02-0.44925206D-01 0.00000000D+00 0.87301122D-01
-0.20230387D-02-0.16955400D-01 0.00000000D+00 0.53928449D-02 0.13946791D-01
-0.19003243D-02-0.63311815D-03 0.00000000D+00 0.00000000D+00 0.29496829D-02
 0.19194600D-01 0.59424747D-02-0.20795790D-02 0.00000000D+00 0.00000000D+00
-0.59823211D-01-0.93753212D-01 0.32612254D-02 0.26942762D-01 0.00000000D+00
 0.24107975D+00 0.30684164D-02 0.44925206D-01 0.00000000D+00 0.87301122D-01
-0.20230387D-02 0.16955400D-01 0.00000000D+00 0.53928449D-02 0.13946791D-01
-0.19003243D-02 0.63311815D-03 0.00000000D+00 0.00000000D+00 0.29496829D-02
 0.19194600D-01 0.59424747D-02 0.20795790D-02 0.00000000D+00 0.00000000D+00
 0.00000000D+00 0.00000000D+00 0.49927458D-01 0.00000000D+00 0.00000000D+00
 0.00000000D+00 0.80881155D-01 0.00000000D+00 0.00000000D+00 0.00000000D+00
 0.27344576D-01 0.00000000D+00 0.00000000D+00 0.00000000D+00 0.00000000D+00
 0.00000000D+00 0.79208281D-02 0.00000000D+00 0.00000000D+00 0.00000000D+00
 0.00000000D+00 0.00000000D+00 0.14165338D-01 0.00000000D+00 0.00000000D+00
 0.59823211D-01 0.93753212D-01 0.32612254D-02-0.26942762D-01 0.00000000D+00
-0.24107975D+00 0.30684164D-02-0.44925206D-01 0.00000000D+00-0.87301122D-01
-0.20230387D-02-0.16955400D-01 0.00000000D+00-0.53928449D-02-0.13946791D-01
 0.19003243D-02 0.63311815D-03 0.00000000D+00 0.00000000D+00-0.29496829D-02
-0.19194600D-01-0.59424747D-02 0.20795790D-02 0.00000000D+00 0.00000000D+00
 0.59823211D-01 0.93753212D-01 0.32612254D-02 0.26942762D-01 0.00000000D+00
-0.24107975D+00 0.30684164D-02 0.44925206D-01 0.00000000D+00-0.87301122D-01
-0.20230387D-02 0.16955400D-01 0.00000000D+00-0.53928449D-02-0.13946791D-01
 0.19003243D-02-0.63311815D-03 0.00000000D+00 0.00000000D+00-0.29496829D-02
-0.19194600D-01-0.59424747D-02-0.20795790D-02 0.00000000D+00 0.00000000D+00
 0.00000000D+00 0.00000000D+00 0.00000000D+00 0.75242416D-03 0.00000000D+00
 0.00000000D+00 0.31903237D-02 0.00000000D+00 0.00000000D+00 0.40881532D-01
 0.61069609D-01 0.90503505D-02-0.40624723D-02-0.27798818D-02 0.00000000D+00
-0.80847102D-02-0.65096439D-02 0.00000000D+00 0.40881532D-01 0.61069609D-01
 0.90503505D-02-0.40624723D-02 0.27798818D-02 0.00000000D+00-0.80847102D-02
 0.65096439D-02 0.00000000D+00 0.00000000D+00 0.00000000D+00 0.00000000D+00
 0.75242416D-03 0.00000000D+00 0.00000000D+00 0.31903237D-02 0.00000000D+00
 0.00000000D+00-0.40881532D-01-0.61069609D-01-0.90503505D-02-0.40624723D-02
-0.27798818D-02 0.00000000D+00-0.80847102D-02-0.65096439D-02 0.00000000D+00
-0.40881532D-01-0.61069609D-01-0.90503505D-02-0.40624723D-02 0.27798818D-02
 0.00000000D+00-0.80847102D-02 0.65096439D-02 0.00000000D+00
    9 Alpha MO OE=-0.10101522D+01
-0.69077894D-01-0.10825688D+00 0.00000000D+00-0.12294185D-01 0.00000000D+00
 0.27837492D+00 0.00000000D+00-0.22869163D-01 0.00000000D+00 0.10080665D+00
 0.00000000D+00-0.11812244D-01 0.00000000D+00 0.14183352D-01 0.81481360D-02
-0.21943055D-02 0.00000000D+00 0.00000000D+00 0.00000000D+00 0.19275480D-01
 0.62945359D-02 0.68617788D-02 0.00000000D+00 0.00000000D+00 0.00000000D+00
-0.34538947D-01-0.54128442D-01-0.26942762D-01 0.34372047D-01 0.00000000D+00
 0.13918746D+00-0.44925206D-01 0.54943575D-01 0.00000000D+00 0.50403326D-01
-0.16955400D-01 0.17555371D-01 0.00000000D+00 0.99731988D-02 0.11925453D-02
-0.10971527D-02-0.49386231D-02 0.00000000D+00 0.00000000D+00 0.13970543D-01
-0.11855353D-02 0.34308894D-02-0.93790075D-02 0.00000000D+00 0.00000000D+00
 0.34538947D-01 0.54128442D-01 0.26942762D-01 0.34372047D-01 0.00000000D+00
-0.13918746D+00 0.44925206D-01 0.54943575D-01 0.00000000D+00-0.50403326D-01
 0.16955400D-01 0.17555371D-01 0.00000000D+00-0.99731988D-02-0.11925453D-02
 0.10971527D-02-0.49386231D-02 0.00000000D+00 0.00000000D+00-0.13970543D-01
 0.11855353D-02-0.34308894D-02-0.93790075D-02 0.00000000D+00 0.00000000D+00
 0.69077894D-01 0.10825688D+00 0.00000000D+00-0.12294185D-01 0.00000000D+00
-0.27837492D+00 0.00000000D+00-0.22869163D-01 0.00000000D+00-0.10080665D+00
 0.00000000D+00-0.11812244D-01 0.00000000D+00-0.14183352D-01-0.81481360D-02
 0.21943055D-02 0.00000000D+00 0.00000000D+00 0.00000000D+00-0.19275480D-01
-0.62945359D-02-0.68617788D-02 0.00000000D+00 0.00000000D+00 0.00000000D+00
 0.34538947D-01 0.54128442D-01-0.26942762D-01 0.34372047D-01 0.00000000D+00
-0.13918746D+00-0.44925206D-01 0.54943575D-01 0.00000000D+00-0.50403326D-01
-0.16955400D-01 0.17555371D-01 0.00000000D+00-0.99731988D-02-0.11925453D-02
 0.10971527D-02 0.49386231D-02 0.00000000D+00 0.00000000D+00-0.13970543D-01
 0.11855353D-02-0.34308894D-02 0.93790075D-02 0.00000000D+00 0.00000000D+00
-0.34538947D-01-0.54128442D-01 0.26942762D-01 0.34372047D-01 0.00000000D+00
 0.13918746D+00 0.44925206D-01 0.54943575D-01 0.00000000D+00 0.50403326D-01
 0.16955400D-01 0.17555371D-01 0.00000000D+00 0.99731988D-02 0.11925453D-02
-0.10971527D-02 0.49386231D-02 0.00000000D+00 0.00000000D+00 0.13970543D-01
-0.11855353D-02 0.34308894D-02 0.93790075D-02 0.00000000D+00 0.00000000D+00
 0.47205927D-01 0.70517111D-01 0.10450445D-01 0.00000000D+00-0.56674378D-02
 0.00000000D+00 0.00000000D+00-0.11843055D-01 0.00000000D+00 0.23602963D-01
 0.35258555D-01 0.52252223D-02-0.27798818D-02-0.85254134D-03 0.00000000D+00
-0.65096439D-02-0.56802091D-03 0.00000000D+00-0.23602963D-01-0.35258555D-01
-0.52252223D-02 0.27798818D-02-0.85254134D-03 0.00000000D+00 0.65096439D-02
-0.56802091D-03 0.00000000D+00-0.47205927D-01-0.70517111D-01-0.10450445D-01
 0.00000000D+00-0.56674378D-02 0.00000000D+00 0.00000000D+00-0.11843055D-01
 0.00000000D+00-0.23602963D-01-0.35258555D-01-0.52252223D-02-0.27798818D-02
-0.85254134D-03 0.00000000D+00-0.65096439D-02-0.56802091D-03 0.00000000D+00
 0.23602963D-01 0.35258555D-01 0.52252223D-02 0.27798818D-02-0.85254134D-03
 0.00000000D+00 0.65096439D-02-0.56802091D-03 0.00000000D+00
   10 Alpha MO OE=-0.82011489D+00
 0.00000000D+00 0.00000000D+00 0.90771784D-01 0.00000000D+00 0.00000000D+00
 0.00000000D+00 0.14070473D+00 0.00000000D+00 0.00000000D+00 0.00000000D+00
 0.48401180D-01 0.00000000D+00 0.00000000D+00 0.00000000D+00 0.00000000D+00
 0.00000000D+00-0.95424123D-02 0.00000000D+00 0.00000000D+00 0.00000000D+00
 0.00000000D+00 0.00000000D+00-0.65859695D-02 0.00000000D+00 0.00000000D+00
-0.46863191D-01-0.74222615D-01-0.20807046D-02 0.51205818D-01 0.00000000D+00
 0.21127251D+00-0.36604730D-02 0.79122539D-01 0.00000000D+00 0.76039785D-01
-0.17469112D-02 0.26935854D-01 0.00000000D+00 0.11030470D-01 0.30113319D-02
-0.55426714D-03-0.15232738D-02 0.00000000D+00 0.00000000D+00 0.23021087D-01
 0.15590660D-01 0.11025997D-01 0.84445760D-03 0.00000000D+00 0.00000000D+00
 0.46863191D-01 0.74222615D-01 0.20807046D-02 0.51205818D-01 0.00000000D+00
-0.21127251D+00 0.36604730D-02 0.79122539D-01 0.00000000D+00-0.76039785D-01
 0.17469112D-02 0.26935854D-01 0.00000000D+00-0.11030470D-01-0.30113319D-02
 0.55426714D-03-0.15232738D-02 0.00000000D+00 0.00000000D+00-0.23021087D-01
-0.15590660D-01-0.11025997D-01 0.84445760D-03 0.00000000D+00 0.00000000D+00
 0.00000000D+00 0.00000000D+00-0.90771784D-01 0.00000000D+00 0.00000000D+00
 0.00000000D+00-0.14070473D+00 0.00000000D+00 0.00000000D+00 0.00000000D+00
-0.48401180D-01 0.00000000D+00 0.00000000D+00 0.00000000D+00 0.00000000D+00
 0.00000000D+00-0.95424123D-02 0.00000000D+00 0.00000000D+00 0.00000000D+00
 0.00000000D+00 0.00000000D+00-0.65859695D-02 0.00000000D+00 0.00000000D+00
-0.46863191D-01-0.74222615D-01 0.20807046D-02-0.51205818D-01 0.00000000D+00
 0.21127251D+00 0.36604730D-02-0.79122539D-01 0.00000000D+00 0.76039785D-01
 0.17469112D-02-0.26935854D-01 0.00000000D+00 0.11030470D-01 0.30113319D-02
-0.55426714D-03-0.15232738D-02 0.00000000D+00 0.00000000D+00 0.23021087D-01
 0.15590660D-01 0.11025997D-01 0.84445760D-03 0.00000000D+00 0.00000000D+00
 0.46863191D-01 0.74222615D-01-0.20807046D-02-0.51205818D-01 0.00000000D+00
-0.21127251D+00-0.36604730D-02-0.79122539D-01 0.00000000D+00-0.76039785D-01
-0.17469112D-02-0.26935854D-01 0.00000000D+00-0.11030470D-01-0.30113319D-02
 0.55426714D-03-0.15232738D-02 0.00000000D+00 0.00000000D+00-0.23021087D-01
-0.15590660D-01-0.11025997D-01 0.84445760D-03 0.00000000D+00 0.00000000D+00
 0.00000000D+00 0.00000000D+00 0.00000000D+00 0.16239073D-02 0.00000000D+00
 0.00000000D+00 0.27187384D-02 0.00000000D+00 0.00000000D+00 0.59980542D-01
 0.79164459D-01 0.19892060D-01-0.57687974D-02-0.23930534D-02 0.00000000D+00
-0.63053087D-02-0.20707073D-02 0.00000000D+00-0.59980542D-01-0.79164459D-01
-0.19892060D-01 0.57687974D-02-0.23930534D-02 0.00000000D+00 0.63053087D-02
-0.20707073D-02 0.00000000D+00 0.00000000D+00 0.00000000D+00 0.00000000D+00
-0.16239073D-02 0.00000000D+00 0.00000000D+00-0.27187384D-02 0.00000000D+00
 0.00000000D+00 0.59980542D-01 0.79164459D-01 0.19892060D-01 0.57687974D-02
 0.23930534D-02 0.00000000D+00 0.63053087D-02 0.20707073D-02 0.00000000D+00
-0.59980542D-01-0.79164459D-01-0.19892060D-01-0.57687974D-02 0.23930534D-02
 0.00000000D+00-0.63053087D-02 0.20707073D-02 0.00000000D+00
   11 Alpha MO OE=-0.82011489D+00
-0.54112952D-01-0.85704893D-01 0.00000000D+00 0.27482988D-01 0.00000000D+00
 0.24395648D+00 0.00000000D+00 0.42020946D-01 0.00000000D+00 0.87803181D-01
 0.00000000D+00 0.13804512D-01 0.00000000D+00 0.71113063D-02 0.91027704D-02
-0.64001256D-03 0.00000000D+00 0.00000000D+00 0.00000000D+00 0.19416201D-01
 0.25168804D-01 0.12731724D-01 0.00000000D+00 0.00000000D+00 0.00000000D+00
 0.27056476D-01 0.42852447D-01-0.51205818D-01 0.61208091D-01 0.00000000D+00
-0.12197824D+00-0.79122539D-01 0.95023312D-01 0.00000000D+00-0.43901590D-01
-0.26935854D-01 0.32849757D-01 0.00000000D+00 0.18955264D-02-0.10002565D-01
 0.32000628D-03-0.46298518D-02 0.00000000D+00 0.00000000D+00-0.75876139D-02
-0.14704889D-01-0.63658621D-02-0.42899591D-02 0.00000000D+00 0.00000000D+00
 0.27056476D-01 0.42852447D-01-0.51205818D-01-0.61208091D-01 0.00000000D+00
-0.12197824D+00-0.79122539D-01-0.95023312D-01 0.00000000D+00-0.43901590D-01
-0.26935854D-01-0.32849757D-01 0.00000000D+00 0.18955264D-02-0.10002565D-01
 0.32000628D-03 0.46298518D-02 0.00000000D+00 0.00000000D+00-0.75876139D-02
-0.14704889D-01-0.63658621D-02 0.42899591D-02 0.00000000D+00 0.00000000D+00
-0.54112952D-01-0.85704893D-01 0.00000000D+00-0.27482988D-01 0.00000000D+00
 0.24395648D+00 0.00000000D+00-0.42020946D-01 0.00000000D+00 0.87803181D-01
 0.00000000D+00-0.13804512D-01 0.00000000D+00 0.71113063D-02 0.91027704D-02
-0.64001256D-03 0.00000000D+00 0.00000000D+00 0.00000000D+00 0.19416201D-01
 0.25168804D-01 0.12731724D-01 0.00000000D+00 0.00000000D+00 0.00000000D+00
 0.27056476D-01 0.42852447D-01 0.51205818D-01-0.61208091D-01 0.00000000D+00
-0.12197824D+00 0.79122539D-01-0.95023312D-01 0.00000000D+00-0.43901590D-01
 0.26935854D-01-0.32849757D-01 0.00000000D+00 0.18955264D-02-0.10002565D-01
 0.32000628D-03-0.46298518D-02 0.00000000D+00 0.00000000D+00-0.75876139D-02
-0.14704889D-01-0.63658621D-02-0.42899591D-02 0.00000000D+00 0.00000000D+00
 0.27056476D-01 0.42852447D-01 0.51205818D-01 0.61208091D-01 0.00000000D+00
-0.12197824D+00 0.79122539D-01 0.95023312D-01 0.00000000D+00-0.43901590D-01
 0.26935854D-01 0.32849757D-01 0.00000000D+00 0.18955264D-02-0.10002565D-01
 0.32000628D-03 0.46298518D-02 0.00000000D+00 0.00000000D+00-0.75876139D-02
-0.14704889D-01-0.63658621D-02 0.42899591D-02 0.00000000D+00 0.00000000D+00
 0.69259564D-01 0.91411244D-01 0.22969373D-01 0.00000000D+00-0.71504274D-02
 0.00000000D+00 0.00000000D+00-0.75008321D-02 0.00000000D+00-0.34629782D-01
-0.45705622D-01-0.11484686D-01 0.23930534D-02 0.30055373D-02 0.00000000D+00
 0.20707073D-02 0.39142619D-02 0.00000000D+00-0.34629782D-01-0.45705622D-01
-0.11484686D-01 0.23930534D-02-0.30055373D-02 0.00000000D+00 0.20707073D-02
-0.39142619D-02 0.00000000D+00 0.69259564D-01 0.91411244D-01 0.22969373D-01
 0.00000000D+00 0.71504274D-02 0.00000000D+00 0.00000000D+00 0.75008321D-02
 0.00000000D+00-0.34629782D-01-0.45705622D-01-0.11484686D-01-0.23930534D-02
-0.30055373D-02 0.00000000D+00-0.20707073D-02-0.39142619D-02 0.00000000D+00
-0.34629782D-01-0.45705622D-01-0.11484686D-01-0.23930534D-02 0.30055373D-02
 0.00000000D+00-0.20707073D-02 0.39142619D-02 0.00000000D+00
   12 Alpha MO OE=-0.70508117D+00
-0.40837458D-02-0.65278057D-02 0.00000000D+00 0.86230355D-01 0.00000000D+00
 0.45324807D-02 0.00000000D+00 0.12745533D+00 0.00000000D+00 0.28717675D-01
 0.00000000D+00 0.48677453D-01 0.00000000D+00-0.18566846D-02 0.22650305D-02
-0.31910432D-04 0.00000000D+00 0.00000000D+00 0.00000000D+00 0.21230523D-02
-0.12949907D-01-0.36528719D-02 0.00000000D+00 0.00000000D+00 0.00000000D+00
-0.40837458D-02-0.65278057D-02 0.74677678D-01 0.43115178D-01 0.00000000D+00
 0.45324807D-02 0.11037956D+00 0.63727666D-01 0.00000000D+00 0.28717675D-01
 0.42155911D-01 0.24338726D-01 0.00000000D+00 0.12346018D-02-0.82625580D-03
-0.31910432D-04 0.20608576D-02 0.00000000D+00 0.00000000D+00-0.91816668D-02
-0.16451874D-02-0.36528719D-02-0.75364795D-02 0.00000000D+00 0.00000000D+00
-0.40837458D-02-0.65278057D-02 0.74677678D-01-0.43115178D-01 0.00000000D+00
 0.45324807D-02 0.11037956D+00-0.63727666D-01 0.00000000D+00 0.28717675D-01
 0.42155911D-01-0.24338726D-01 0.00000000D+00 0.12346018D-02-0.82625580D-03
-0.31910432D-04-0.20608576D-02 0.00000000D+00 0.00000000D+00-0.91816668D-02
-0.16451874D-02-0.36528719D-02 0.75364795D-02 0.00000000D+00 0.00000000D+00
-0.40837458D-02-0.65278057D-02 0.00000000D+00-0.86230355D-01 0.00000000D+00
 0.45324807D-02 0.00000000D+00-0.12745533D+00 0.00000000D+00 0.28717675D-01
 0.00000000D+00-0.48677453D-01 0.00000000D+00-0.18566846D-02 0.22650305D-02
-0.31910432D-04 0.00000000D+00 0.00000000D+00 0.00000000D+00 0.21230523D-02
-0.12949907D-01-0.36528719D-02 0.00000000D+00 0.00000000D+00 0.00000000D+00
-0.40837458D-02-0.65278057D-02-0.74677678D-01-0.43115178D-01 0.00000000D+00
 0.45324807D-02-0.11037956D+00-0.63727666D-01 0.00000000D+00 0.28717675D-01
-0.42155911D-01-0.24338726D-01 0.00000000D+00 0.12346018D-02-0.82625580D-03
-0.31910432D-04 0.20608576D-02 0.00000000D+00 0.00000000D+00-0.91816668D-02
-0.16451874D-02-0.36528719D-02-0.75364795D-02 0.00000000D+00 0.00000000D+00
-0.40837458D-02-0.65278057D-02-0.74677678D-01 0.43115178D-01 0.00000000D+00
 0.45324807D-02-0.11037956D+00 0.63727666D-01 0.00000000D+00 0.28717675D-01
-0.42155911D-01 0.24338726D-01 0.00000000D+00 0.12346018D-02-0.82625580D-03
-0.31910432D-04-0.20608576D-02 0.00000000D+00 0.00000000D+00-0.91816668D-02
-0.16451874D-02-0.36528719D-02 0.75364795D-02 0.00000000D+00 0.00000000D+00
 0.67149577D-01 0.11480982D+00 0.28598813D-01 0.00000000D+00-0.59114567D-02
 0.00000000D+00 0.00000000D+00-0.11949523D-01 0.00000000D+00 0.67149577D-01
 0.11480982D+00 0.28598813D-01-0.51194717D-02-0.29557283D-02 0.00000000D+00
-0.10348591D-01-0.59747616D-02 0.00000000D+00 0.67149577D-01 0.11480982D+00
 0.28598813D-01-0.51194717D-02 0.29557283D-02 0.00000000D+00-0.10348591D-01
 0.59747616D-02 0.00000000D+00 0.67149577D-01 0.11480982D+00 0.28598813D-01
 0.00000000D+00 0.59114567D-02 0.00000000D+00 0.00000000D+00 0.11949523D-01
 0.00000000D+00 0.67149577D-01 0.11480982D+00 0.28598813D-01 0.51194717D-02
 0.29557283D-02 0.00000000D+00 0.10348591D-01 0.59747616D-02 0.00000000D+00
 0.67149577D-01 0.11480982D+00 0.28598813D-01 0.51194717D-02-0.29557283D-02
 0.00000000D+00 0.10348591D-01-0.59747616D-02 0.00000000D+00
   13 Alpha MO OE=-0.64129920D+00
-0.30425778D-01-0.48914094D-01 0.00000000D+00 0.57621108D-01 0.00000000D+00
 0.14454026D+00 0.00000000D+00 0.88353695D-01 0.00000000D+00 0.58981427D-01
 0.00000000D+00 0.51741396D-01 0.00000000D+00-0.37546421D-02 0.11320303D-01
 0.12666370D-03 0.00000000D+00 0.00000000D+00 0.00000000D+00-0.16277703D-01
 0.52546427D-01 0.81144815D-02 0.00000000D+00 0.00000000D+00 0.00000000D+00
 0.30425778D-01 0.48914094D-01-0.49901344D-01-0.28810554D-01 0.00000000D+00
-0.14454026D+00-0.76516544D-01-0.44176847D-01 0.00000000D+00-0.58981427D-01
-0.44809363D-01-0.25870698D-01 0.00000000D+00-0.75515671D-02-0.14094304D-04
-0.12666370D-03-0.75374727D-02 0.00000000D+00 0.00000000D+00-0.35340394D-01
-0.92832917D-03-0.81144815D-02-0.34412065D-01 0.00000000D+00 0.00000000D+00
-0.30425778D-01-0.48914094D-01 0.49901344D-01-0.28810554D-01 0.00000000D+00
 0.14454026D+00 0.76516544D-01-0.44176847D-01 0.00000000D+00 0.58981427D-01
 0.44809363D-01-0.25870698D-01 0.00000000D+00 0.75515671D-02 0.14094304D-04
 0.12666370D-03-0.75374727D-02 0.00000000D+00 0.00000000D+00 0.35340394D-01
 0.92832917D-03 0.81144815D-02-0.34412065D-01 0.00000000D+00 0.00000000D+00
 0.30425778D-01 0.48914094D-01 0.00000000D+00 0.57621108D-01 0.00000000D+00
-0.14454026D+00 0.00000000D+00 0.88353695D-01 0.00000000D+00-0.58981427D-01
 0.00000000D+00 0.51741396D-01 0.00000000D+00 0.37546421D-02-0.11320303D-01
-0.12666370D-03 0.00000000D+00 0.00000000D+00 0.00000000D+00 0.16277703D-01
-0.52546427D-01-0.81144815D-02 0.00000000D+00 0.00000000D+00 0.00000000D+00
-0.30425778D-01-0.48914094D-01-0.49901344D-01-0.28810554D-01 0.00000000D+00
 0.14454026D+00-0.76516544D-01-0.44176847D-01 0.00000000D+00 0.58981427D-01
-0.44809363D-01-0.25870698D-01 0.00000000D+00 0.75515671D-02 0.14094304D-04
 0.12666370D-03 0.75374727D-02 0.00000000D+00 0.00000000D+00 0.35340394D-01
 0.92832917D-03 0.81144815D-02 0.34412065D-01 0.00000000D+00 0.00000000D+00
 0.30425778D-01 0.48914094D-01 0.49901344D-01-0.28810554D-01 0.00000000D+00
-0.14454026D+00 0.76516544D-01-0.44176847D-01 0.00000000D+00-0.58981427D-01
 0.44809363D-01-0.25870698D-01 0.00000000D+00-0.75515671D-02-0.14094304D-04
-0.12666370D-03 0.75374727D-02 0.00000000D+00 0.00000000D+00-0.35340394D-01
-0.92832917D-03-0.81144815D-02 0.34412065D-01 0.00000000D+00 0.00000000D+00
 0.83029462D-01 0.95772478D-01 0.45850527D-01 0.00000000D+00-0.72846189D-02
 0.00000000D+00 0.00000000D+00 0.64648306D-03 0.00000000D+00-0.83029462D-01
-0.95772478D-01-0.45850527D-01 0.63086650D-02 0.36423094D-02 0.00000000D+00
-0.55987075D-03-0.32324153D-03 0.00000000D+00 0.83029462D-01 0.95772478D-01
 0.45850527D-01-0.63086650D-02 0.36423094D-02 0.00000000D+00 0.55987075D-03
-0.32324153D-03 0.00000000D+00-0.83029462D-01-0.95772478D-01-0.45850527D-01
 0.00000000D+00-0.72846189D-02 0.00000000D+00 0.00000000D+00 0.64648306D-03
 0.00000000D+00 0.83029462D-01 0.95772478D-01 0.45850527D-01 0.63086650D-02
 0.36423094D-02 0.00000000D+00-0.55987075D-03-0.32324153D-03 0.00000000D+00
-0.83029462D-01-0.95772478D-01-0.45850527D-01-0.63086650D-02 0.36423094D-02
 0.00000000D+00 0.55987075D-03-0.32324153D-03 0.00000000D+00
   14 Alpha MO OE=-0.61495253D+00
 0.00000000D+00 0.00000000D+00 0.12200041D+00 0.00000000D+00 0.00000000D+00
 0.00000000D+00 0.19258782D+00 0.00000000D+00 0.00000000D+00 0.00000000D+00
 0.82705795D-01 0.00000000D+00 0.00000000D+00 0.00000000D+00 0.00000000D+00
 0.00000000D+00-0.10151644D-01 0.00000000D+00 0.00000000D+00 0.00000000D+00
 0.00000000D+00 0.00000000D+00-0.73140598D-03 0.00000000D+00 0.00000000D+00
 0.54405362D-17-0.25574660D-15-0.61000203D-01 0.10565545D+00 0.00000000D+00
-0.17028825D-13-0.96293912D-01 0.16678595D+00 0.00000000D+00-0.40265565D-13
-0.41352897D-01 0.71625319D-01 0.00000000D+00 0.76137331D-02-0.76137331D-02
-0.16664841D-15-0.50758221D-02 0.00000000D+00 0.00000000D+00 0.54855448D-03
-0.54855448D-03-0.79502656D-14-0.36570299D-03 0.00000000D+00 0.00000000D+00
 0.54405362D-17-0.25574660D-15-0.61000203D-01-0.10565545D+00 0.00000000D+00
-0.17028825D-13-0.96293912D-01-0.16678595D+00 0.00000000D+00-0.40265565D-13
-0.41352897D-01-0.71625319D-01 0.00000000D+00 0.76137331D-02-0.76137331D-02
-0.16664841D-15 0.50758221D-02 0.00000000D+00 0.00000000D+00 0.54855448D-03
-0.54855448D-03-0.79502656D-14 0.36570299D-03 0.00000000D+00 0.00000000D+00
 0.00000000D+00 0.00000000D+00 0.12200041D+00 0.00000000D+00 0.00000000D+00
 0.00000000D+00 0.19258782D+00 0.00000000D+00 0.00000000D+00 0.00000000D+00
 0.82705795D-01 0.00000000D+00 0.00000000D+00 0.00000000D+00 0.00000000D+00
 0.00000000D+00 0.10151644D-01 0.00000000D+00 0.00000000D+00 0.00000000D+00
 0.00000000D+00 0.00000000D+00 0.73140598D-03 0.00000000D+00 0.00000000D+00
-0.54405362D-17 0.25574660D-15-0.61000203D-01 0.10565545D+00 0.00000000D+00
 0.17028825D-13-0.96293912D-01 0.16678595D+00 0.00000000D+00 0.40265565D-13
-0.41352897D-01 0.71625319D-01 0.00000000D+00-0.76137331D-02 0.76137331D-02
 0.16664841D-15 0.50758221D-02 0.00000000D+00 0.00000000D+00-0.54855448D-03
 0.54855448D-03 0.79502656D-14 0.36570299D-03 0.00000000D+00 0.00000000D+00
-0.54405362D-17 0.25574660D-15-0.61000203D-01-0.10565545D+00 0.00000000D+00
 0.17028825D-13-0.96293912D-01-0.16678595D+00 0.00000000D+00 0.40265565D-13
-0.41352897D-01-0.71625319D-01 0.00000000D+00-0.76137331D-02 0.76137331D-02
 0.16664841D-15-0.50758221D-02 0.00000000D+00 0.00000000D+00-0.54855448D-03
 0.54855448D-03 0.79502656D-14-0.36570299D-03 0.00000000D+00 0.00000000D+00
 0.00000000D+00 0.00000000D+00 0.00000000D+00 0.25827799D-02 0.00000000D+00
 0.00000000D+00 0.23725508D-02 0.00000000D+00 0.00000000D+00-0.74635282D-15
 0.36624679D-13 0.10607226D-13-0.12913899D-02 0.22367530D-02 0.00000000D+00
-0.11862754D-02 0.20546893D-02 0.00000000D+00-0.74635282D-15 0.36624679D-13
 0.10607226D-13-0.12913899D-02-0.22367530D-02 0.00000000D+00-0.11862754D-02
-0.20546893D-02 0.00000000D+00 0.00000000D+00 0.00000000D+00 0.00000000D+00
 0.25827799D-02 0.00000000D+00 0.00000000D+00 0.23725508D-02 0.00000000D+00
 0.00000000D+00 0.74635282D-15-0.36624679D-13-0.10607226D-13-0.12913899D-02
 0.22367530D-02 0.00000000D+00-0.11862754D-02 0.20546893D-02 0.00000000D+00
 0.74635282D-15-0.36624679D-13-0.10607226D-13-0.12913899D-02-0.22367530D-02
 0.00000000D+00-0.11862754D-02-0.20546893D-02 0.00000000D+00
   15 Alpha MO OE=-0.58432813D+00
 0.00000000D+00 0.00000000D+00-0.38083331D-01 0.00000000D+00 0.00000000D+00
 0.00000000D+00-0.60866187D-01 0.00000000D+00 0.00000000D+00 0.00000000D+00
-0.36600640D-01 0.00000000D+00 0.00000000D+00 0.00000000D+00 0.00000000D+00
 0.00000000D+00 0.94591407D-02 0.00000000D+00 0.00000000D+00 0.00000000D+00
 0.00000000D+00 0.00000000D+00 0.15540021D-01 0.00000000D+00 0.00000000D+00
 0.95717750D-02 0.15253588D-01 0.87860025D-01 0.72713431D-01 0.00000000D+00
-0.43617531D-01 0.13683235D+00 0.11414130D+00 0.00000000D+00-0.91163056D-02
 0.69660592D-01 0.61349951D-01 0.00000000D+00 0.51874669D-02-0.89620024D-02
-0.41523578D-03 0.46903287D-02 0.00000000D+00 0.00000000D+00 0.88997210D-02
-0.74315701D-02-0.29050675D-02 0.79127040D-03 0.00000000D+00 0.00000000D+00
 0.95717750D-02 0.15253588D-01 0.87860025D-01-0.72713431D-01 0.00000000D+00
-0.43617531D-01 0.13683235D+00-0.11414130D+00 0.00000000D+00-0.91163056D-02
 0.69660592D-01-0.61349951D-01 0.00000000D+00 0.51874669D-02-0.89620024D-02
-0.41523578D-03-0.46903287D-02 0.00000000D+00 0.00000000D+00 0.88997210D-02
-0.74315701D-02-0.29050675D-02-0.79127040D-03 0.00000000D+00 0.00000000D+00
 0.00000000D+00 0.00000000D+00-0.38083331D-01 0.00000000D+00 0.00000000D+00
 0.00000000D+00-0.60866187D-01 0.00000000D+00 0.00000000D+00 0.00000000D+00
-0.36600640D-01 0.00000000D+00 0.00000000D+00 0.00000000D+00 0.00000000D+00
 0.00000000D+00-0.94591407D-02 0.00000000D+00 0.00000000D+00 0.00000000D+00
 0.00000000D+00 0.00000000D+00-0.15540021D-01 0.00000000D+00 0.00000000D+00
-0.95717750D-02-0.15253588D-01 0.87860025D-01 0.72713431D-01 0.00000000D+00
 0.43617531D-01 0.13683235D+00 0.11414130D+00 0.00000000D+00 0.91163056D-02
 0.69660592D-01 0.61349951D-01 0.00000000D+00-0.51874669D-02 0.89620024D-02
 0.41523578D-03-0.46903287D-02 0.00000000D+00 0.00000000D+00-0.88997210D-02
 0.74315701D-02 0.29050675D-02-0.79127040D-03 0.00000000D+00 0.00000000D+00
-0.95717750D-02-0.15253588D-01 0.87860025D-01-0.72713431D-01 0.00000000D+00
 0.43617531D-01 0.13683235D+00-0.11414130D+00 0.00000000D+00 0.91163056D-02
 0.69660592D-01-0.61349951D-01 0.00000000D+00-0.51874669D-02 0.89620024D-02
 0.41523578D-03 0.46903287D-02 0.00000000D+00 0.00000000D+00-0.88997210D-02
 0.74315701D-02 0.29050675D-02 0.79127040D-03 0.00000000D+00 0.00000000D+00
 0.00000000D+00 0.00000000D+00 0.00000000D+00-0.28546991D-03 0.00000000D+00
 0.00000000D+00-0.29773163D-02 0.00000000D+00 0.00000000D+00 0.85831736D-01
 0.13116043D+00 0.50661863D-01-0.56607626D-02-0.31034267D-02 0.00000000D+00
-0.63388768D-02-0.19407979D-02 0.00000000D+00 0.85831736D-01 0.13116043D+00
 0.50661863D-01-0.56607626D-02 0.31034267D-02 0.00000000D+00-0.63388768D-02
 0.19407979D-02 0.00000000D+00 0.00000000D+00 0.00000000D+00 0.00000000D+00
-0.28546991D-03 0.00000000D+00 0.00000000D+00-0.29773163D-02 0.00000000D+00
 0.00000000D+00-0.85831736D-01-0.13116043D+00-0.50661863D-01-0.56607626D-02
-0.31034267D-02 0.00000000D+00-0.63388768D-02-0.19407979D-02 0.00000000D+00
-0.85831736D-01-0.13116043D+00-0.50661863D-01-0.56607626D-02 0.31034267D-02
 0.00000000D+00-0.63388768D-02 0.19407979D-02 0.00000000D+00
   16 Alpha MO OE=-0.58432813D+00
 0.11052534D-01 0.17613326D-01 0.00000000D+00 0.12984114D+00 0.00000000D+00
-0.50365187D-01 0.00000000D+00 0.20273186D+00 0.00000000D+00-0.10526603D-01
 0.00000000D+00 0.10508100D+00 0.00000000D+00-0.10325773D-01 0.59673147D-02
-0.47947297D-03 0.00000000D+00 0.00000000D+00 0.00000000D+00-0.45520606D-02
 0.62473352D-02-0.33544830D-02 0.00000000D+00 0.00000000D+00 0.00000000D+00
 0.55262669D-02 0.88066629D-02 0.72713431D-01 0.38977879D-02 0.00000000D+00
-0.25182594D-01 0.11414130D+00 0.50333239D-02 0.00000000D+00-0.52633015D-02
 0.61349951D-01-0.11802295D-02 0.00000000D+00-0.51968707D-02 0.30176416D-02
-0.23973649D-03 0.81692000D-02 0.00000000D+00 0.00000000D+00-0.83197964D-02
 0.91674337D-02-0.16772415D-02 0.94288753D-02 0.00000000D+00 0.00000000D+00
-0.55262669D-02-0.88066629D-02-0.72713431D-01 0.38977879D-02 0.00000000D+00
 0.25182594D-01-0.11414130D+00 0.50333239D-02 0.00000000D+00 0.52633015D-02
-0.61349951D-01-0.11802295D-02 0.00000000D+00 0.51968707D-02-0.30176416D-02
 0.23973649D-03 0.81692000D-02 0.00000000D+00 0.00000000D+00 0.83197964D-02
-0.91674337D-02 0.16772415D-02 0.94288753D-02 0.00000000D+00 0.00000000D+00
-0.11052534D-01-0.17613326D-01 0.00000000D+00 0.12984114D+00 0.00000000D+00
 0.50365187D-01 0.00000000D+00 0.20273186D+00 0.00000000D+00 0.10526603D-01
 0.00000000D+00 0.10508100D+00 0.00000000D+00 0.10325773D-01-0.59673147D-02
 0.47947297D-03 0.00000000D+00 0.00000000D+00 0.00000000D+00 0.45520606D-02
-0.62473352D-02 0.33544830D-02 0.00000000D+00 0.00000000D+00 0.00000000D+00
-0.55262669D-02-0.88066629D-02 0.72713431D-01 0.38977879D-02 0.00000000D+00
 0.25182594D-01 0.11414130D+00 0.50333239D-02 0.00000000D+00 0.52633015D-02
 0.61349951D-01-0.11802295D-02 0.00000000D+00 0.51968707D-02-0.30176416D-02
 0.23973649D-03-0.81692000D-02 0.00000000D+00 0.00000000D+00 0.83197964D-02
-0.91674337D-02 0.16772415D-02-0.94288753D-02 0.00000000D+00 0.00000000D+00
 0.55262669D-02 0.88066629D-02-0.72713431D-01 0.38977879D-02 0.00000000D+00
-0.25182594D-01-0.11414130D+00 0.50333239D-02 0.00000000D+00-0.52633015D-02
[...]
-0.76900281D+00 0.44398398D+00 0.00000000D+00 0.13182231D+01 0.13007702D+01
 0.13178826D+01-0.17452907D-01 0.00000000D+00 0.00000000D+00 0.53205363D+00
 0.97397515D+00 0.12363800D+01 0.44192152D+00 0.00000000D+00 0.00000000D+00
-0.33093243D-01-0.63404491D+00-0.15939721D+00 0.00000000D+00-0.98406181D-02
 0.00000000D+00 0.00000000D+00 0.28246021D+00 0.00000000D+00 0.33093243D-01
 0.63404491D+00 0.15939721D+00 0.85222252D-02 0.49203090D-02 0.00000000D+00
-0.24461772D+00-0.14123011D+00 0.00000000D+00-0.33093243D-01-0.63404491D+00
-0.15939721D+00-0.85222252D-02 0.49203090D-02 0.00000000D+00 0.24461772D+00
-0.14123011D+00 0.00000000D+00 0.33093243D-01 0.63404491D+00 0.15939721D+00
 0.00000000D+00-0.98406181D-02 0.00000000D+00 0.00000000D+00 0.28246021D+00
 0.00000000D+00-0.33093243D-01-0.63404491D+00-0.15939721D+00 0.85222252D-02
 0.49203090D-02 0.00000000D+00-0.24461772D+00-0.14123011D+00 0.00000000D+00
 0.33093243D-01 0.63404491D+00 0.15939721D+00-0.85222252D-02 0.49203090D-02
 0.00000000D+00 0.24461772D+00-0.14123011D+00 0.00000000D+00
  199 Alpha MO OE= 0.34546281D+02
 0.10173570D+01-0.17384519D+01 0.00000000D+00-0.15958300D-02 0.00000000D+00
 0.26949225D+01 0.00000000D+00 0.12755191D+00 0.00000000D+00 0.13974551D+01
 0.00000000D+00 0.15478141D+00 0.00000000D+00-0.10438510D+01-0.10233135D+01
-0.10192194D+01 0.00000000D+00 0.00000000D+00 0.00000000D+00-0.78530595D+00
-0.56899221D+00-0.70843452D+00 0.00000000D+00 0.00000000D+00 0.00000000D+00
 0.10173570D+01-0.17384519D+01-0.13820293D-02-0.79791498D-03 0.00000000D+00
 0.26949225D+01 0.11046319D+00 0.63775953D-01 0.00000000D+00 0.13974551D+01
 0.13404463D+00 0.77390706D-01 0.00000000D+00-0.10284478D+01-0.10387166D+01
-0.10192194D+01 0.10268747D-01 0.00000000D+00 0.00000000D+00-0.62307065D+00
-0.73122752D+00-0.70843452D+00 0.10815687D+00 0.00000000D+00 0.00000000D+00
 0.10173570D+01-0.17384519D+01-0.13820293D-02 0.79791498D-03 0.00000000D+00
 0.26949225D+01 0.11046319D+00-0.63775953D-01 0.00000000D+00 0.13974551D+01
 0.13404463D+00-0.77390706D-01 0.00000000D+00-0.10284478D+01-0.10387166D+01
-0.10192194D+01-0.10268747D-01 0.00000000D+00 0.00000000D+00-0.62307065D+00
-0.73122752D+00-0.70843452D+00-0.10815687D+00 0.00000000D+00 0.00000000D+00
 0.10173570D+01-0.17384519D+01 0.00000000D+00 0.15958300D-02 0.00000000D+00
 0.26949225D+01 0.00000000D+00-0.12755191D+00 0.00000000D+00 0.13974551D+01
 0.00000000D+00-0.15478141D+00 0.00000000D+00-0.10438510D+01-0.10233135D+01
-0.10192194D+01 0.00000000D+00 0.00000000D+00 0.00000000D+00-0.78530595D+00
-0.56899221D+00-0.70843452D+00 0.00000000D+00 0.00000000D+00 0.00000000D+00
 0.10173570D+01-0.17384519D+01 0.13820293D-02 0.79791498D-03 0.00000000D+00
 0.26949225D+01-0.11046319D+00-0.63775953D-01 0.00000000D+00 0.13974551D+01
-0.13404463D+00-0.77390706D-01 0.00000000D+00-0.10284478D+01-0.10387166D+01
-0.10192194D+01 0.10268747D-01 0.00000000D+00 0.00000000D+00-0.62307065D+00
-0.73122752D+00-0.70843452D+00 0.10815687D+00 0.00000000D+00 0.00000000D+00
 0.10173570D+01-0.17384519D+01 0.13820293D-02-0.79791498D-03 0.00000000D+00
 0.26949225D+01-0.11046319D+00 0.63775953D-01 0.00000000D+00 0.13974551D+01
-0.13404463D+00 0.77390706D-01 0.00000000D+00-0.10284478D+01-0.10387166D+01
-0.10192194D+01-0.10268747D-01 0.00000000D+00 0.00000000D+00-0.62307065D+00
-0.73122752D+00-0.70843452D+00-0.10815687D+00 0.00000000D+00 0.00000000D+00
-0.56265498D-01-0.18619349D+00-0.20424071D+00 0.00000000D+00 0.30554482D-01
 0.00000000D+00 0.00000000D+00 0.11135283D+00 0.00000000D+00-0.56265498D-01
-0.18619349D+00-0.20424071D+00 0.26460958D-01 0.15277241D-01 0.00000000D+00
 0.96434376D-01 0.55676413D-01 0.00000000D+00-0.56265498D-01-0.18619349D+00
-0.20424071D+00 0.26460958D-01-0.15277241D-01 0.00000000D+00 0.96434376D-01
-0.55676413D-01 0.00000000D+00-0.56265498D-01-0.18619349D+00-0.20424071D+00
 0.00000000D+00-0.30554482D-01 0.00000000D+00 0.00000000D+00-0.11135283D+00
 0.00000000D+00-0.56265498D-01-0.18619349D+00-0.20424071D+00-0.26460958D-01
-0.15277241D-01 0.00000000D+00-0.96434376D-01-0.55676413D-01 0.00000000D+00
-0.56265498D-01-0.18619349D+00-0.20424071D+00-0.26460958D-01 0.15277241D-01
 0.00000000D+00-0.96434376D-01 0.55676413D-01 0.00000000D+00
  200 Alpha MO OE= 0.36533333D+02
 0.00000000D+00 0.00000000D+00 0.46917187D-01 0.00000000D+00 0.00000000D+00
 0.00000000D+00-0.42940379D+00 0.00000000D+00 0.00000000D+00 0.00000000D+00
 0.33533034D+00 0.00000000D+00 0.00000000D+00 0.00000000D+00 0.00000000D+00
 0.00000000D+00 0.33158375D-01 0.00000000D+00 0.00000000D+00 0.00000000D+00
 0.00000000D+00 0.00000000D+00 0.70196499D+00 0.00000000D+00 0.00000000D+00
 0.12723135D+01-0.22448186D+01 0.55954578D-01 0.52177399D-02 0.00000000D+00
 0.37584802D+01-0.42571850D+00 0.21277068D-02 0.00000000D+00 0.15259737D+01
-0.10055284D+00-0.25165727D+00 0.00000000D+00-0.13076299D+01-0.13271496D+01
-0.13845830D+01-0.13638721D-01 0.00000000D+00 0.00000000D+00-0.81112094D+00
-0.13498123D+01-0.85587915D+00-0.16327359D+00 0.00000000D+00 0.00000000D+00
 0.12723135D+01-0.22448186D+01 0.55954578D-01-0.52177399D-02 0.00000000D+00
 0.37584802D+01-0.42571850D+00-0.21277068D-02 0.00000000D+00 0.15259737D+01
-0.10055284D+00 0.25165727D+00 0.00000000D+00-0.13076299D+01-0.13271496D+01
-0.13845830D+01 0.13638721D-01 0.00000000D+00 0.00000000D+00-0.81112094D+00
-0.13498123D+01-0.85587915D+00 0.16327359D+00 0.00000000D+00 0.00000000D+00
 0.00000000D+00 0.00000000D+00 0.46917187D-01 0.00000000D+00 0.00000000D+00
 0.00000000D+00-0.42940379D+00 0.00000000D+00 0.00000000D+00 0.00000000D+00
 0.33533034D+00 0.00000000D+00 0.00000000D+00 0.00000000D+00 0.00000000D+00
 0.00000000D+00-0.33158375D-01 0.00000000D+00 0.00000000D+00 0.00000000D+00
 0.00000000D+00 0.00000000D+00-0.70196499D+00 0.00000000D+00 0.00000000D+00
-0.12723135D+01 0.22448186D+01 0.55954578D-01 0.52177399D-02 0.00000000D+00
-0.37584802D+01-0.42571850D+00 0.21277068D-02 0.00000000D+00-0.15259737D+01
-0.10055284D+00-0.25165727D+00 0.00000000D+00 0.13076299D+01 0.13271496D+01
 0.13845830D+01 0.13638721D-01 0.00000000D+00 0.00000000D+00 0.81112094D+00
 0.13498123D+01 0.85587915D+00 0.16327359D+00 0.00000000D+00 0.00000000D+00
-0.12723135D+01 0.22448186D+01 0.55954578D-01-0.52177399D-02 0.00000000D+00
-0.37584802D+01-0.42571850D+00-0.21277068D-02 0.00000000D+00-0.15259737D+01
-0.10055284D+00 0.25165727D+00 0.00000000D+00 0.13076299D+01 0.13271496D+01
 0.13845830D+01-0.13638721D-01 0.00000000D+00 0.00000000D+00 0.81112094D+00
 0.13498123D+01 0.85587915D+00-0.16327359D+00 0.00000000D+00 0.00000000D+00
 0.00000000D+00 0.00000000D+00 0.00000000D+00-0.13730371D-02 0.00000000D+00
 0.00000000D+00-0.24621359D+00 0.00000000D+00 0.00000000D+00-0.62436630D-01
 0.40986300D+00-0.13939232D+00 0.19361339D-02 0.19105508D-02 0.00000000D+00
-0.10079909D+00 0.83955102D-01 0.00000000D+00-0.62436630D-01 0.40986300D+00
-0.13939232D+00 0.19361339D-02-0.19105508D-02 0.00000000D+00-0.10079909D+00
-0.83955102D-01 0.00000000D+00 0.00000000D+00 0.00000000D+00 0.00000000D+00
-0.13730371D-02 0.00000000D+00 0.00000000D+00-0.24621359D+00 0.00000000D+00
 0.00000000D+00 0.62436630D-01-0.40986300D+00 0.13939232D+00 0.19361339D-02
 0.19105508D-02 0.00000000D+00-0.10079909D+00 0.83955102D-01 0.00000000D+00
 0.62436630D-01-0.40986300D+00 0.13939232D+00 0.19361339D-02-0.19105508D-02
 0.00000000D+00-0.10079909D+00-0.83955102D-01 0.00000000D+00
  201 Alpha MO OE= 0.36533333D+02
 0.14691410D+01-0.25920933D+01 0.00000000D+00 0.58967041D-01 0.00000000D+00
 0.43399191D+01 0.00000000D+00-0.42449007D+00 0.00000000D+00 0.17620427D+01
 0.00000000D+00-0.24584724D+00 0.00000000D+00-0.15150140D+01-0.15273673D+01
-0.15987787D+01 0.00000000D+00 0.00000000D+00 0.00000000D+00-0.12617231D+01
-0.12335077D+01-0.98828411D+00 0.00000000D+00 0.00000000D+00 0.00000000D+00
 0.73457052D+00-0.12960466D+01 0.52177399D-02 0.49929651D-01 0.00000000D+00
 0.21699595D+01 0.21277068D-02-0.42817536D+00 0.00000000D+00 0.88102135D+00
-0.25165727D+00 0.19003595D+00 0.00000000D+00-0.78367648D+00-0.73751416D+00
-0.79938936D+00 0.11269677D-01 0.00000000D+00 0.00000000D+00-0.10762204D+01
-0.17139500D+00-0.49414206D+00 0.31101363D+00 0.00000000D+00 0.00000000D+00
-0.73457052D+00 0.12960466D+01-0.52177399D-02 0.49929651D-01 0.00000000D+00
-0.21699595D+01-0.21277068D-02-0.42817536D+00 0.00000000D+00-0.88102135D+00
 0.25165727D+00 0.19003595D+00 0.00000000D+00 0.78367648D+00 0.73751416D+00
 0.79938936D+00 0.11269677D-01 0.00000000D+00 0.00000000D+00 0.10762204D+01
 0.17139500D+00 0.49414206D+00 0.31101363D+00 0.00000000D+00 0.00000000D+00
-0.14691410D+01 0.25920933D+01 0.00000000D+00 0.58967041D-01 0.00000000D+00
-0.43399191D+01 0.00000000D+00-0.42449007D+00 0.00000000D+00-0.17620427D+01
 0.00000000D+00-0.24584724D+00 0.00000000D+00 0.15150140D+01 0.15273673D+01
 0.15987787D+01 0.00000000D+00 0.00000000D+00 0.00000000D+00 0.12617231D+01
 0.12335077D+01 0.98828411D+00 0.00000000D+00 0.00000000D+00 0.00000000D+00
-0.73457052D+00 0.12960466D+01 0.52177399D-02 0.49929651D-01 0.00000000D+00
-0.21699595D+01 0.21277068D-02-0.42817536D+00 0.00000000D+00-0.88102135D+00
-0.25165727D+00 0.19003595D+00 0.00000000D+00 0.78367648D+00 0.73751416D+00
 0.79938936D+00-0.11269677D-01 0.00000000D+00 0.00000000D+00 0.10762204D+01
 0.17139500D+00 0.49414206D+00-0.31101363D+00 0.00000000D+00 0.00000000D+00
 0.73457052D+00-0.12960466D+01-0.52177399D-02 0.49929651D-01 0.00000000D+00
 0.21699595D+01-0.21277068D-02-0.42817536D+00 0.00000000D+00 0.88102135D+00
 0.25165727D+00 0.19003595D+00 0.00000000D+00-0.78367648D+00-0.73751416D+00
-0.79938936D+00-0.11269677D-01 0.00000000D+00 0.00000000D+00-0.10762204D+01
-0.17139500D+00-0.49414206D+00-0.31101363D+00 0.00000000D+00 0.00000000D+00
-0.72095610D-01 0.47326903D+00-0.16095639D+00 0.00000000D+00 0.30391909D-02
 0.00000000D+00 0.00000000D+00-0.52327587D-01 0.00000000D+00-0.36047805D-01
 0.23663451D+00-0.80478196D-01 0.19105508D-02-0.26998007D-03 0.00000000D+00
 0.83955102D-01-0.19774209D+00 0.00000000D+00 0.36047805D-01-0.23663451D+00
 0.80478196D-01-0.19105508D-02-0.26998007D-03 0.00000000D+00-0.83955102D-01
-0.19774209D+00 0.00000000D+00 0.72095610D-01-0.47326903D+00 0.16095639D+00
 0.00000000D+00 0.30391909D-02 0.00000000D+00 0.00000000D+00-0.52327587D-01
 0.00000000D+00 0.36047805D-01-0.23663451D+00 0.80478196D-01 0.19105508D-02
-0.26998007D-03 0.00000000D+00 0.83955102D-01-0.19774209D+00 0.00000000D+00
-0.36047805D-01 0.23663451D+00-0.80478196D-01-0.19105508D-02-0.26998007D-03
 0.00000000D+00-0.83955102D-01-0.19774209D+00 0.00000000D+00
  202 Alpha MO OE= 0.36721040D+02
 0.14740479D+01-0.26192383D+01 0.00000000D+00 0.39493155D-01 0.00000000D+00
 0.28555478D+01 0.00000000D+00-0.41789512D+00 0.00000000D+00 0.54966014D+01
 0.00000000D+00-0.66722704D+00 0.00000000D+00-0.15381576D+01-0.15428585D+01
-0.16574714D+01 0.00000000D+00 0.00000000D+00 0.00000000D+00-0.16033188D+01
-0.26277064D+01-0.16679760D+01 0.00000000D+00 0.00000000D+00 0.00000000D+00
-0.73702396D+00 0.13096192D+01-0.18519104D-01-0.74171263D-02 0.00000000D+00
-0.14277739D+01 0.21746462D+00 0.41235349D-01 0.00000000D+00-0.27483007D+01
 0.43440076D+00-0.85177138D-01 0.00000000D+00 0.76233306D+00 0.77817499D+00
 0.82873572D+00 0.68476279D-02 0.00000000D+00 0.00000000D+00 0.10248573D+01
 0.10906553D+01 0.83398799D+00 0.36339522D+00 0.00000000D+00 0.00000000D+00
-0.73702396D+00 0.13096192D+01-0.18519104D-01 0.74171263D-02 0.00000000D+00
-0.14277739D+01 0.21746462D+00-0.41235349D-01 0.00000000D+00-0.27483007D+01
 0.43440076D+00 0.85177138D-01 0.00000000D+00 0.76233306D+00 0.77817499D+00
 0.82873572D+00-0.68476279D-02 0.00000000D+00 0.00000000D+00 0.10248573D+01
 0.10906553D+01 0.83398799D+00-0.36339522D+00 0.00000000D+00 0.00000000D+00
 0.14740479D+01-0.26192383D+01 0.00000000D+00-0.39493155D-01 0.00000000D+00
 0.28555478D+01 0.00000000D+00 0.41789512D+00 0.00000000D+00 0.54966014D+01
 0.00000000D+00 0.66722704D+00 0.00000000D+00-0.15381576D+01-0.15428585D+01
-0.16574714D+01 0.00000000D+00 0.00000000D+00 0.00000000D+00-0.16033188D+01
-0.26277064D+01-0.16679760D+01 0.00000000D+00 0.00000000D+00 0.00000000D+00
-0.73702396D+00 0.13096192D+01 0.18519104D-01 0.74171263D-02 0.00000000D+00
-0.14277739D+01-0.21746462D+00-0.41235349D-01 0.00000000D+00-0.27483007D+01
-0.43440076D+00 0.85177138D-01 0.00000000D+00 0.76233306D+00 0.77817499D+00
 0.82873572D+00 0.68476279D-02 0.00000000D+00 0.00000000D+00 0.10248573D+01
 0.10906553D+01 0.83398799D+00 0.36339522D+00 0.00000000D+00 0.00000000D+00
-0.73702396D+00 0.13096192D+01 0.18519104D-01-0.74171263D-02 0.00000000D+00
-0.14277739D+01-0.21746462D+00 0.41235349D-01 0.00000000D+00-0.27483007D+01
-0.43440076D+00-0.85177138D-01 0.00000000D+00 0.76233306D+00 0.77817499D+00
 0.82873572D+00-0.68476279D-02 0.00000000D+00 0.00000000D+00 0.10248573D+01
 0.10906553D+01 0.83398799D+00-0.36339522D+00 0.00000000D+00 0.00000000D+00
-0.39519740D-01 0.12517436D+01-0.28639443D+00 0.00000000D+00 0.67633955D-02
 0.00000000D+00 0.00000000D+00-0.34063761D+00 0.00000000D+00 0.19759870D-01
-0.62587180D+00 0.14319721D+00-0.30857167D-02-0.14187773D-02 0.00000000D+00
 0.17632325D+00 0.35236778D-01 0.00000000D+00 0.19759870D-01-0.62587180D+00
 0.14319721D+00-0.30857167D-02 0.14187773D-02 0.00000000D+00 0.17632325D+00
-0.35236778D-01 0.00000000D+00-0.39519740D-01 0.12517436D+01-0.28639443D+00
 0.00000000D+00-0.67633955D-02 0.00000000D+00 0.00000000D+00 0.34063761D+00
 0.00000000D+00 0.19759870D-01-0.62587180D+00 0.14319721D+00 0.30857167D-02
 0.14187773D-02 0.00000000D+00-0.17632325D+00-0.35236778D-01 0.00000000D+00
 0.19759870D-01-0.62587180D+00 0.14319721D+00 0.30857167D-02-0.14187773D-02
 0.00000000D+00-0.17632325D+00 0.35236778D-01 0.00000000D+00
  203 Alpha MO OE= 0.36721040D+02
 0.00000000D+00 0.00000000D+00 0.32748831D-02 0.00000000D+00 0.00000000D+00
 0.00000000D+00-0.84317908D-01 0.00000000D+00 0.00000000D+00 0.00000000D+00
-0.33597853D+00 0.00000000D+00 0.00000000D+00 0.00000000D+00 0.00000000D+00
 0.00000000D+00 0.13099825D-01 0.00000000D+00 0.00000000D+00 0.00000000D+00
 0.00000000D+00 0.00000000D+00 0.24779484D+00 0.00000000D+00 0.00000000D+00
 0.12765629D+01-0.22683269D+01 0.28801145D-01 0.18519104D-01 0.00000000D+00
 0.24729769D+01-0.29234186D+00-0.21746462D+00 0.00000000D+00 0.47601965D+01
-0.41642565D+00-0.43440076D+00 0.00000000D+00-0.13400493D+01-0.13281889D+01
-0.14354124D+01 0.12393858D-02 0.00000000D+00 0.00000000D+00-0.21467971D+01
-0.15173782D+01-0.14445096D+01-0.38162415D+00 0.00000000D+00 0.00000000D+00
-0.12765629D+01 0.22683269D+01-0.28801145D-01 0.18519104D-01 0.00000000D+00
-0.24729769D+01 0.29234186D+00-0.21746462D+00 0.00000000D+00-0.47601965D+01
 0.41642565D+00-0.43440076D+00 0.00000000D+00 0.13400493D+01 0.13281889D+01
 0.14354124D+01 0.12393858D-02 0.00000000D+00 0.00000000D+00 0.21467971D+01
 0.15173782D+01 0.14445096D+01-0.38162415D+00 0.00000000D+00 0.00000000D+00
 0.00000000D+00 0.00000000D+00-0.32748831D-02 0.00000000D+00 0.00000000D+00
 0.00000000D+00 0.84317908D-01 0.00000000D+00 0.00000000D+00 0.00000000D+00
 0.33597853D+00 0.00000000D+00 0.00000000D+00 0.00000000D+00 0.00000000D+00
 0.00000000D+00 0.13099825D-01 0.00000000D+00 0.00000000D+00 0.00000000D+00
 0.00000000D+00 0.00000000D+00 0.24779484D+00 0.00000000D+00 0.00000000D+00
 0.12765629D+01-0.22683269D+01-0.28801145D-01-0.18519104D-01 0.00000000D+00
 0.24729769D+01 0.29234186D+00 0.21746462D+00 0.00000000D+00 0.47601965D+01
 0.41642565D+00 0.43440076D+00 0.00000000D+00-0.13400493D+01-0.13281889D+01
-0.14354124D+01 0.12393858D-02 0.00000000D+00 0.00000000D+00-0.21467971D+01
-0.15173782D+01-0.14445096D+01-0.38162415D+00 0.00000000D+00 0.00000000D+00
-0.12765629D+01 0.22683269D+01 0.28801145D-01-0.18519104D-01 0.00000000D+00
-0.24729769D+01-0.29234186D+00 0.21746462D+00 0.00000000D+00-0.47601965D+01
-0.41642565D+00 0.43440076D+00 0.00000000D+00 0.13400493D+01 0.13281889D+01
 0.14354124D+01 0.12393858D-02 0.00000000D+00 0.00000000D+00 0.21467971D+01
 0.15173782D+01 0.14445096D+01-0.38162415D+00 0.00000000D+00 0.00000000D+00
 0.00000000D+00 0.00000000D+00 0.00000000D+00 0.36276204D-03 0.00000000D+00
 0.00000000D+00-0.66563499D-01 0.00000000D+00 0.00000000D+00-0.34225099D-01
 0.10840418D+01-0.24802485D+00 0.49818561D-02 0.30857167D-02 0.00000000D+00
-0.23883733D+00-0.17632325D+00 0.00000000D+00 0.34225099D-01-0.10840418D+01
 0.24802485D+00-0.49818561D-02 0.30857167D-02 0.00000000D+00 0.23883733D+00
-0.17632325D+00 0.00000000D+00 0.00000000D+00 0.00000000D+00 0.00000000D+00
-0.36276204D-03 0.00000000D+00 0.00000000D+00 0.66563499D-01 0.00000000D+00
 0.00000000D+00-0.34225099D-01 0.10840418D+01-0.24802485D+00-0.49818561D-02
-0.30857167D-02 0.00000000D+00 0.23883733D+00 0.17632325D+00 0.00000000D+00
 0.34225099D-01-0.10840418D+01 0.24802485D+00 0.49818561D-02-0.30857167D-02
 0.00000000D+00-0.23883733D+00 0.17632325D+00 0.00000000D+00
  204 Alpha MO OE= 0.37728460D+02
 0.10540741D+01-0.19049023D+01 0.00000000D+00 0.28852199D-01 0.00000000D+00
 0.37605556D+01 0.00000000D+00-0.93061321D-01 0.00000000D+00 0.36279764D+01
 0.00000000D+00-0.13657962D-01 0.00000000D+00-0.11262644D+01-0.11804922D+01
-0.11803181D+01 0.00000000D+00 0.00000000D+00 0.00000000D+00-0.47638735D+00
 0.67973121D+00-0.98332162D+00 0.00000000D+00 0.00000000D+00 0.00000000D+00
-0.10540741D+01 0.19049023D+01-0.24986737D-01-0.14426099D-01 0.00000000D+00
-0.37605556D+01 0.80593468D-01 0.46530661D-01 0.00000000D+00-0.36279764D+01
 0.11828142D-01 0.68289811D-02 0.00000000D+00 0.11669352D+01 0.11398213D+01
 0.11803181D+01 0.27113906D-01 0.00000000D+00 0.00000000D+00-0.39070157D+00
 0.18735771D+00 0.98332162D+00-0.57805928D+00 0.00000000D+00 0.00000000D+00
 0.10540741D+01-0.19049023D+01 0.24986737D-01-0.14426099D-01 0.00000000D+00
 0.37605556D+01-0.80593468D-01 0.46530661D-01 0.00000000D+00 0.36279764D+01
-0.11828142D-01 0.68289811D-02 0.00000000D+00-0.11669352D+01-0.11398213D+01
-0.11803181D+01 0.27113906D-01 0.00000000D+00 0.00000000D+00 0.39070157D+00
-0.18735771D+00-0.98332162D+00-0.57805928D+00 0.00000000D+00 0.00000000D+00
-0.10540741D+01 0.19049023D+01 0.00000000D+00 0.28852199D-01 0.00000000D+00
-0.37605556D+01 0.00000000D+00-0.93061321D-01 0.00000000D+00-0.36279764D+01
 0.00000000D+00-0.13657962D-01 0.00000000D+00 0.11262644D+01 0.11804922D+01
 0.11803181D+01 0.00000000D+00 0.00000000D+00 0.00000000D+00 0.47638735D+00
-0.67973121D+00 0.98332162D+00 0.00000000D+00 0.00000000D+00 0.00000000D+00
 0.10540741D+01-0.19049023D+01-0.24986737D-01-0.14426099D-01 0.00000000D+00
 0.37605556D+01 0.80593468D-01 0.46530661D-01 0.00000000D+00 0.36279764D+01
 0.11828142D-01 0.68289811D-02 0.00000000D+00-0.11669352D+01-0.11398213D+01
-0.11803181D+01-0.27113906D-01 0.00000000D+00 0.00000000D+00 0.39070157D+00
-0.18735771D+00-0.98332162D+00 0.57805928D+00 0.00000000D+00 0.00000000D+00
-0.10540741D+01 0.19049023D+01 0.24986737D-01-0.14426099D-01 0.00000000D+00
-0.37605556D+01-0.80593468D-01 0.46530661D-01 0.00000000D+00-0.36279764D+01
-0.11828142D-01 0.68289811D-02 0.00000000D+00 0.11669352D+01 0.11398213D+01
 0.11803181D+01-0.27113906D-01 0.00000000D+00 0.00000000D+00-0.39070157D+00
 0.18735771D+00 0.98332162D+00 0.57805928D+00 0.00000000D+00 0.00000000D+00
 0.30451709D-01-0.16741690D+01-0.27835056D+00 0.00000000D+00 0.95082209D-02
 0.00000000D+00 0.00000000D+00 0.63280593D+00 0.00000000D+00-0.30451709D-01
 0.16741690D+01 0.27835056D+00-0.82343608D-02-0.47541104D-02 0.00000000D+00
-0.54802601D+00-0.31640297D+00 0.00000000D+00 0.30451709D-01-0.16741690D+01
-0.27835056D+00 0.82343608D-02-0.47541104D-02 0.00000000D+00 0.54802601D+00
-0.31640297D+00 0.00000000D+00-0.30451709D-01 0.16741690D+01 0.27835056D+00
 0.00000000D+00 0.95082209D-02 0.00000000D+00 0.00000000D+00 0.63280593D+00
 0.00000000D+00 0.30451709D-01-0.16741690D+01-0.27835056D+00-0.82343608D-02
-0.47541104D-02 0.00000000D+00-0.54802601D+00-0.31640297D+00 0.00000000D+00
-0.30451709D-01 0.16741690D+01 0.27835056D+00 0.82343608D-02-0.47541104D-02
 0.00000000D+00 0.54802601D+00-0.31640297D+00 0.00000000D+00
88.096u 4.155s 1:34.63 97.4% 0+0k 604+6io 16pf+0w
Mon May 30 21:10:48 CDT 2005
