[Molden Format]
[Molpro variables]
_NUMVAR=  779.0000000000000    
_AVOGAD= 0.6022136736000000E+24
_BOLTZ= 0.1380658000000000E-22
_CLIGHT=  29979245800.00000    
_EV2006= 0.3674930886769165E-01
_EV= 0.3674932534394180E-01
_ENULL= 0.8854187817000000E-11
_KJOULE= 0.3808798324128737E-03
_KJOULE/MOL= 0.3808798324128737E-03
_CM= 0.4556335267302901E-05
_CM-1= 0.4556335267302901E-05
_DEB2SI= 0.3335641000000000E-29
_AMU2AU=  1822.888390000000    
_KCAL= 0.1593601117815568E-02
_KCAL/MOL= 0.1593601117815568E-02
_KELVIN2006= 0.3166828861084835E-05
_KELVIN= 0.3166814820820034E-05
_JOULE= 0.4359748200000000E-17
_HERTZ2006= 0.1519829850815779E-15
_HERTZ= 0.1519829846011223E-15
_HZ2006= 0.1519829850815779E-15
_HZ= 0.1519829846011223E-15
_JPCAL=  4.184000000000000    
_PLANCK= 0.6626075540000000E-33
_TOA2006= 0.5291772490000000    
_TOA= 0.5291772090000000    
_TOANG2006= 0.5291772490000000    
_TOANG= 0.5291772090000000    
_TORAD= 0.1745329251994330E-01
_TOCM=  219474.6306700000    
_TODEBYE=  2.541580000000000    
_TOEV2006=  27.21139610000000    
_TOE= 0.4803242000000000E-09
_TOEV=  27.21138390000000    
_TOHERTZ2006=  6579683899900000.    
_TOHERTZ=  6579683920700000.    
_TOHZ2006=  6579683899900000.    
_TOHZ=  6579683920700000.    
_TOK2006=  315773.3000000000    
_TOK=  315774.7000000000    
_TOKCAL=  627.5096000000000    
_TOKELVIN2006=  315773.3000000000    
_TOKELVIN=  315774.7000000000    
_TOKJ=  2625.500000000000    
_TOKJOULE=  2625.500000000000    
_TOKG= 0.1660565586000000E-26
_ANG2006=  1.889725988578923    
_ANG=  1.889726131421507    
_ANGSTROM2006=  1.889725988578923    
_ANGSTROM=  1.889726131421507    
_RPAREF=  0.000000000000000    
_RPADISS=  0.000000000000000    
_IGNORE_UNDEF=  2.000000000000000    
_STRICTCHECK=  0.000000000000000    
_SEW_ONEEL=  0.000000000000000    
_CPPDONE=FALSE
_DKROLL_DONE=  311.0000000000000    
_FOCKDONE=TRUE
_GRADONE=FALSE
_HESSDONE=FALSE
_INTDONE=TRUE
_SCFDONE=TRUE
_MODUL_BLOCK=FALSE
_MODUL_CUDA=FALSE
_MODUL_SLATER=FALSE
_MODUL_MRCC=FALSE
_MODUL_NBO6=FALSE
_MODUL_NECI=TRUE
_MODUL_AIMS=TRUE
_MRCC_EXEC=
_FITC_AO_SAVED=FALSE
_FITC_MO_SAVED=FALSE
_SHARED_FS=TRUE
_LSTYP=SEWARD
_INTYP=INTS
_GEOMTYP=ZMAT
_GRADTYP=ALASKA
_DIRECT=FALSE
_DKROLL=  1.000000000000000    
_DKHO=  3.000000000000000    
_DKHP=  1.000000000000000    
_SYNCM=  0.000000000000000    
_BASIS=USERDEF
_ZORIENT=  1.000000000000000    
_NELEC=  78.00000000000000    
!SPIN=  0.000000000000000    
_QSDSTEP=  0.000000000000000    
_QSDIRC=  0.000000000000000    
_PROGRAM=HF-SCF
_CPUSTEP= 0.3000000000000025E-01
_SYSSTEP= 0.9999999999999981E-02
_WALLSTEP= 0.1300000000000000    
!DFSCF=  0.000000000000000    
!SCSGRD=  0.000000000000000    
_BASINP=  610.0000000000000    
_CARTESIAN=FALSE
_CPUTOT=  5.150000000000000    
_CPUSORT= 0.8999999999999986E-01
_SYSSORT= 0.3000000000000000E-01
_WALLSORT= 0.1300000008195639    
_DFTEXFAC=  1.000000000000000    
_DMX=  0.000000000000000    
_DMY=  0.000000000000000    
_DMZ=  0.000000000000000    
_DMX_SCF=  0.000000000000000    
_DMY_SCF=  0.000000000000000    
_DMZ_SCF=  0.000000000000000    
_EHOMO=-0.3222119835615375    
_ELUMO=-0.6010822871485325E-02
_ENERGY= -18414.48922206151    
_ENUC=  0.000000000000000    
_GRADEXFAC=  9999.000000000000    
_GRADMETHOD=  1.000000000000000    
_NMRMETHOD=  0.000000000000000    
!GRID_FREEZE= -1.000000000000000    
_ITERATIONS=  14.00000000000000    
_LASTNELEC=  78.00000000000000    
_LASTSPIN=  0.000000000000000    
_LASTSYM=  1.000000000000000    
_MPP_PROG=  1.000000000000000    
_NPROC_MPP=  10.00000000000000    
_NPROC_MPPX=  10.00000000000000    
_NPROC_SMP=  1.000000000000000    
_NUMSTEP=  0.000000000000000    
_ORBITAL=  2100.200000000000    
_PI=  3.141592653589793    
_SEIG_MIN= 0.1735888716947953E-02
_SEWPROP=TRUE
_STATUS=  1.000000000000000    
_SYSTOT= 0.1800000000000000    
_VERSION=  2012001.000000000    
_WALLTOT=  6.160000000000000    
_DATE=08-Oct-17
_LASTORB=RHF
_MACHINE=Linux-2.6.32-696.10.3.el6.x86_64/nxt1570(x86_64) 64 bit mpp version
_OUTPUT=/scratch/user/r-lucchese/H2ONormMode37548/molpro.xml
_PGROUP=D2h
_TIME=19:25:26
_LIBMOL=/general/software/x86_64/lms/molpro-2012.1_patch_level-16/lib/
!VIBCNT=  0.000000000000000    
!RGHFCNT=  0.000000000000000    
!SURFREC=  0.000000000000000    
!POLYREC=  0.000000000000000    
!DIPREC=  0.000000000000000    
!VSCFREC=  0.000000000000000    
!VCIREC=  0.000000000000000    
!PVCIREC=  0.000000000000000    
!VMP2REC=  0.000000000000000    
!VMCSCFREC=  0.000000000000000    
!VMRCIREC=  0.000000000000000    
!VIBINFO=  0.000000000000000    
!GAREC=  0.000000000000000    
!SCFORB=  21002.00000000000    
!NEWMOL= -1.000000000000000    
!NEWSYM= -1.000000000000000    
_SLFILES=slscratch
_NGSSTO=  9.000000000000000    
_SIN=SIN
_COS=COS
_TAN=TAN
_ACOS=ACOS
_ASIN=ASIN
_ATAN=ATAN
_COSH=COSH
_SINH=SINH
_TANH=TANH
_ABS=ABS
_MOD=MOD
_ERF=ERF
_REFC=REFC
_ERFC=ERFC
_HYPOT=HYPOT
_J0=J0
_J1=J1
_JN=JN
_GAMMA=GAMMA
_LGAMMA=LGAMMA
_Y0=Y0
_Y1=Y1
_YN=YN
_EXP=EXP
_LOG=LOG
_LOG10=LOG10
_SQRT=SQRT
_INT=INT
_NINT=NINT
_MAX=MAX
_MIN=MIN
_COSMO=  0.000000000000000    
_COSMOIT=  0.000000000000000    
_COSMOES=  0.000000000000000    
_COSMOEDS=  0.000000000000000    
_COSMOEC=  0.000000000000000    
_COSMOEDCORR=  0.000000000000000    
_FEPSI=  1.000000000000000    
_SL_IsMM=  0.000000000000000    
_SL_NSYM=  8.000000000000000    
_SL_System_BitSw=  0.000000000000000    
_SL_Unique_atoms=  0.000000000000000    
_SL_GRAD=  0.000000000000000    
_SL_MAXUPD_Hess=  5.000000000000000    
_SL_N_PRINT_COD=  5.000000000000000    
_SL_PRINT_CODES=  0.000000000000000    
_SL_BasType=  0.000000000000000    
_SL_Energy_Pred=  0.000000000000000    
_SL_New_Coords=  0.000000000000000    
_SL_Total_Nuclea=  78.00000000000000    
_SL_Highest_Mltp=  0.000000000000000    
_SL_Ref_Geom=  0.000000000000000    
_SL_Symmetry_ope=  1.000000000000000    
_SL_agrad=  0.000000000000000    
_SL_GrdMax=  0.000000000000000    
_SL_GrdNorm=  0.000000000000000    
_SL_GrdRMS=  0.000000000000000    
_SL_Hss_Q=  0.000000000000000    
_SL_Hss_X=  0.000000000000000    
_SL_BMxOld=  0.000000000000000    
_SL_KtB=  0.000000000000000    
!LATTICE= -1.000000000000000    
!NEWLATTICE=  0.000000000000000    
!LATGRAD_VAR=FALSE
!SEW_LATTICE=  1.000000000000000    
!LOCAL=  0.000000000000000    
!SAVEDOM= -1.000000000000000    
!RESTDOM= -1.000000000000000    
!SAVEDOM_HF= -1.000000000000000    
!RESTDOM_HF= -1.000000000000000    
!HESSREC=  0.000000000000000    
!FREQREC=  0.000000000000000    
!NMODREC=  0.000000000000000    
!GTASKS=  0.000000000000000    
!HTASKS=  0.000000000000000    
!THRCHG= 0.1000000000000000    
!DEBUG= -1.000000000000000    
!CFIT_CPHF=  0.000000000000000    
!RDOMAUX_CPHF=  3.000000000000000    
!THRAO_CPHF= 0.1000000000000000E-09
!THRMO_CPHF= 0.1000000000000000E-08
!THROV_CPHF= 0.1000000000000000E-11
!THRSW_CPHF= 0.1000000000000000E-09
!THRPROD_CPHF= 0.1000000000000000E-08
!THRAOPR_CPHF= 0.1000000000000000E-11
!CFIT_SCFGRD=  0.000000000000000    
!RDOMAUX_SCFGRD=  5.000000000000000    
!THRAO_SCFGRD= 0.1000000000000000E-09
!THRMO_SCFGRD= 0.1000000000000000E-08
!THROV_SCFGRD= 0.1000000000000000E-11
!THRSW_SCFGRD= 0.1000000000000000E-09
!THRPROD_SCFGRD= 0.1000000000000000E-08
!THRAOPR_SCFGRD= 0.1000000000000000E-11
!LOCFIT_SCF=  0.000000000000000    
!LOCFIT_MP2= -1.000000000000000    
_RIDOM=  0.000000000000000    
!CC2_METHOD=  0.000000000000000    
_BASIS2006=FALSE
_SVDDEL= -1.000000000000000    
_SVDDELA= -1.000000000000000    
_SVDDELP= -1.000000000000000    
_SVDDELF= -1.000000000000000    
_SVDDELS= -1.000000000000000    
_SVDDEL_ABS= -1.000000000000000    
_SVDDELA_ABS= -1.000000000000000    
_SVDDELP_ABS= -1.000000000000000    
_SVDDELF_ABS= -1.000000000000000    
_SVDDELS_ABS= -1.000000000000000    
_MAXBASIS=  0.000000000000000    
!OPT_CONICAL=  0.000000000000000    
!CLEARSP_JGRID=  0.000000000000000    
_4EXT_NDISKS=  1.000000000000000    
!ZMP=  0.000000000000000    
_MAXIT_ZMP=  500.0000000000000    
_MAXDIS_ZMP=  100.0000000000000    
_ACCU_ZMP=  14.00000000000000    
_SHIFTA_ZMP= -100.0000000000000    
!EMBEDFLAG=  1.000000000000000    
!EMBED=FALSE
!EMBED_F12=FALSE
!EMBEDNUC=  0.000000000000000    
_EMBEDENERGY=  0.000000000000000    
_KSPACETIME=  0.000000000000000    
_RSPACETIME=  0.000000000000000    
!EMBED_DFC=FALSE
!NUM_VOIDS=  0.000000000000000    
_IBODY=  0.000000000000000    
_EMBE_TOTAL=  0.000000000000000    
_EMBE_HF=  0.000000000000000    
_EMBE_CORR=  0.000000000000000    
!EDFT=  0.000000000000000    
_IFASTLATGRAD=  0.000000000000000    
_SINDEX=  0.000000000000000    
GX1=  0.000000000000000    
GY1=  0.000000000000000    
GZ1=  0.000000000000000    
[Atoms] Angs
PT    1   78         0.0000000000        0.0000000000        0.0000000000
[GTO]
  1 0
 s   25  1.00
  0.1205382000D+10 -0.8387060474D-05
  0.1804682000D+09  0.1048019597D-03
  0.2701945000D+08  0.9717876270D-03
  0.6152960000D+07  0.2387217893D-02
  0.1745261000D+07  0.5023514184D-02
  0.5707934000D+06  0.9704511870D-02
  0.2068351000D+06  0.1799604194D-01
  0.8106362000D+05  0.3242267890D-01
  0.3380885000D+05  0.5729540182D-01
  0.1482336000D+05  0.9916292669D-01
  0.6769830000D+04  0.1639681695D+00
  0.3199226000D+04  0.2450514892D+00
  0.1555871000D+04  0.2908535591D+00
  0.7708248000D+03  0.2242806593D+00
  0.3689449000D+03  0.7091918078D-01
  0.1938957000D+03 -0.2439801092D-02
  0.1012889000D+03  0.3653707489D-02
  0.4915550000D+02 -0.2500822992D-02
  0.2703121000D+02  0.1786573194D-02
  0.1369175000D+02 -0.1118409196D-02
  0.7257551000D+01  0.6808767479D-03
  0.3777594000D+01 -0.3019301591D-03
  0.1604346000D+01  0.9916115369D-04
  0.6954906000D+00 -0.3024324091D-04
  0.1186979000D+00  0.6002319081D-05
 s   25  1.00
  0.1205382000D+10 -0.3240604040D-05
  0.1804682000D+09  0.4051842800D-04
  0.2701945000D+08  0.3756439879D-03
  0.6152960000D+07  0.9239152985D-03
  0.1745261000D+07  0.1950397945D-02
  0.5707934000D+06  0.3787898381D-02
  0.2068351000D+06  0.7091729826D-02
  0.8106362000D+05  0.1295792796D-01
  0.3380885000D+05  0.2345853774D-01
  0.1482336000D+05  0.4205552212D-01
  0.6769830000D+04  0.7399489949D-01
  0.3199226000D+04  0.1214241490D+00
  0.1555871000D+04  0.1685729025D+00
  0.7708248000D+03  0.1342933600D+00
  0.3689449000D+03 -0.1253527193D+00
  0.1938957000D+03 -0.4838919559D+00
  0.1012889000D+03 -0.4517015335D+00
  0.4915550000D+02 -0.1057534578D+00
  0.2703121000D+02  0.9936895237D-02
  0.1369175000D+02 -0.5723794324D-02
  0.7257551000D+01  0.3219153539D-02
  0.3777594000D+01 -0.1290109596D-02
  0.1604346000D+01  0.4085196303D-03
  0.6954906000D+00 -0.1275413195D-03
  0.1186979000D+00  0.2473545583D-04
 s   25  1.00
  0.1205382000D+10  0.1549386292D-05
  0.1804682000D+09 -0.1937482240D-04
  0.2701945000D+08 -0.1796255813D-03
  0.6152960000D+07 -0.4418770669D-03
  0.1745261000D+07 -0.9333664683D-03
  0.5707934000D+06 -0.1814071529D-02
  0.2068351000D+06 -0.3402417556D-02
  0.8106362000D+05 -0.6229075795D-02
  0.3380885000D+05 -0.1132915218D-01
  0.1482336000D+05 -0.2041283133D-01
  0.6769830000D+04 -0.3635585865D-01
  0.3199226000D+04 -0.6054220638D-01
  0.1555871000D+04 -0.8692776207D-01
  0.7708248000D+03 -0.6933923628D-01
  0.3689449000D+03  0.9625396745D-01
  0.1938957000D+03  0.4364217320D+00
  0.1012889000D+03  0.5142438519D+00
  0.4915550000D+02 -0.2847825358D+00
  0.2703121000D+02 -0.8330757982D+00
  0.1369175000D+02 -0.2665513194D+00
  0.7257551000D+01  0.5839111844D-03
  0.3777594000D+01 -0.5401196151D-02
  0.1604346000D+01  0.1426964982D-02
  0.6954906000D+00 -0.3356345814D-03
  0.1186979000D+00  0.7507316443D-04
 s   25  1.00
  0.1205382000D+10  0.7713557072D-06
  0.1804682000D+09 -0.9645970519D-05
  0.2701945000D+08 -0.8942893634D-04
  0.6152960000D+07 -0.2200039135D-03
  0.1745261000D+07 -0.4647761282D-03
  0.5707934000D+06 -0.9034941898D-03
  0.2068351000D+06 -0.1695303917D-02
  0.8106362000D+05 -0.3105177846D-02
  0.3380885000D+05 -0.5654040355D-02
  0.1482336000D+05 -0.1019917219D-01
  0.6769830000D+04 -0.1822181588D-01
  0.3199226000D+04 -0.3044540529D-01
  0.1555871000D+04 -0.4410197056D-01
  0.7708248000D+03 -0.3515810124D-01
  0.3689449000D+03  0.5348917690D-01
  0.1938957000D+03  0.2546575634D+00
  0.1012889000D+03  0.3244427179D+00
  0.4915550000D+02 -0.2662996724D+00
  0.2703121000D+02 -0.1032823374D+01
  0.1369175000D+02 -0.1300477061D+00
  0.7257551000D+01  0.9868098619D+00
  0.3777594000D+01  0.4722420242D+00
  0.1604346000D+01  0.2509464652D-01
  0.6954906000D+00 -0.9668688664D-03
  0.1186979000D+00  0.2877105414D-03
 s   25  1.00
  0.1205382000D+10  0.3288437778D-06
  0.1804682000D+09 -0.4112162259D-05
  0.2701945000D+08 -0.3812278397D-04
  0.6152960000D+07 -0.9379172617D-04
  0.1745261000D+07 -0.1981295821D-03
  0.5707934000D+06 -0.3852381389D-03
  0.2068351000D+06 -0.7226995737D-03
  0.8106362000D+05 -0.1324592802D-02
  0.3380885000D+05 -0.2410341215D-02
  0.1482336000D+05 -0.4355584415D-02
  0.6769830000D+04 -0.7769387719D-02
  0.3199226000D+04 -0.1303926457D-01
  0.1555871000D+04 -0.1881314069D-01
  0.7708248000D+03 -0.1522293577D-01
  0.3689449000D+03  0.2385595051D-01
  0.1938957000D+03  0.1117108364D+00
  0.1012889000D+03  0.1490651311D+00
  0.4915550000D+02 -0.1377143998D+00
  0.2703121000D+02 -0.5396855221D+00
  0.1369175000D+02 -0.6354594232D-01
  0.7257551000D+01  0.8527619046D+00
  0.3777594000D+01  0.5718848459D+00
  0.1604346000D+01 -0.8707989969D+00
  0.6954906000D+00 -0.6350738528D+00
  0.1186979000D+00 -0.1969686183D-01
 s   25  1.00
  0.1205382000D+10  0.1450746208D-06
  0.1804682000D+09 -0.1814277409D-05
  0.2701945000D+08 -0.1682135150D-04
  0.6152960000D+07 -0.4137972354D-04
  0.1745261000D+07 -0.8743336058D-04
  0.5707934000D+06 -0.1699315983D-03
  0.2068351000D+06 -0.3190322871D-03
  0.8106362000D+05 -0.5840039653D-03
  0.3380885000D+05 -0.1064986720D-02
  0.1482336000D+05 -0.1918070234D-02
  0.6769830000D+04 -0.3439866187D-02
  0.3199226000D+04 -0.5726906277D-02
  0.1555871000D+04 -0.8377097760D-02
  0.7708248000D+03 -0.6561714789D-02
  0.3689449000D+03  0.1016248761D-01
  0.1938957000D+03  0.5052848241D-01
  0.1012889000D+03  0.6460581815D-01
  0.4915550000D+02 -0.5809603546D-01
  0.2703121000D+02 -0.2551323333D+00
  0.1369175000D+02 -0.1310001040D-01
  0.7257551000D+01  0.3980915584D+00
  0.3777594000D+01  0.3475021092D+00
  0.1604346000D+01 -0.6828551597D+00
  0.6954906000D+00 -0.5329420786D+00
  0.1186979000D+00  0.1159228415D+01
 s    1  1.00
  0.4431765000D-01  0.1000000000D+01
 s    1  1.00
  0.1477255000D-01  0.1000000000D+01
 p   20  1.00
  0.3458384000D+07  0.8170402280D-04
  0.8186839000D+06  0.1865436073D-03
  0.1938025000D+06  0.7606129988D-03
  0.4587777000D+05  0.2497149363D-02
  0.1489352000D+05  0.6759654501D-02
  0.5701807000D+04  0.1865658673D-01
  0.2427804000D+04  0.4867427828D-01
  0.1115536000D+04  0.1158335083D+00
  0.5426889000D+03  0.2290767366D+00
  0.2753364000D+03  0.3362067451D+00
  0.1441628000D+03  0.3007788956D+00
  0.7683168000D+02  0.1266676781D+00
  0.4127808000D+02  0.1541589477D-01
  0.2247729000D+02  0.7551130689D-03
  0.1194776000D+02 -0.3594335547D-03
  0.6278367000D+01  0.1086306584D-03
  0.3271773000D+01 -0.8976753068D-04
  0.1583984000D+01  0.4186160338D-04
  0.7314014000D+00 -0.1326563980D-04
  0.3046285000D+00  0.4071932040D-05
 p   20  1.00
  0.3458384000D+07  0.4191393013D-04
  0.8186839000D+06  0.9582063401D-04
  0.1938025000D+06  0.3919777119D-03
  0.4587777000D+05  0.1292851273D-02
  0.1489352000D+05  0.3526738827D-02
  0.5701807000D+04  0.9833934496D-02
  0.2427804000D+04  0.2614723446D-01
  0.1115536000D+04  0.6405779867D-01
  0.5426889000D+03  0.1324895872D+00
  0.2753364000D+03  0.2030137758D+00
  0.1441628000D+03  0.1497013969D+00
  0.7683168000D+02 -0.1628893266D+00
  0.4127808000D+02 -0.5114835794D+00
  0.2247729000D+02 -0.3827383320D+00
  0.1194776000D+02 -0.8672410720D-01
  0.6278367000D+01 -0.2877064940D-02
  0.3271773000D+01 -0.1044931278D-02
  0.1583984000D+01  0.3664206824D-03
  0.7314014000D+00 -0.9107783611D-04
  0.3046285000D+00  0.3377252630D-04
 p   20  1.00
  0.3458384000D+07 -0.2071364001D-04
  0.8186839000D+06 -0.4737310773D-04
  0.1938025000D+06 -0.1939094307D-03
  0.4587777000D+05 -0.6403843093D-03
  0.1489352000D+05 -0.1749471916D-02
  0.5701807000D+04 -0.4892439465D-02
  0.2427804000D+04 -0.1305904637D-01
  0.1115536000D+04 -0.3224564545D-01
  0.5426889000D+03 -0.6737217577D-01
  0.2753364000D+03 -0.1046828850D+00
  0.1441628000D+03 -0.7065753261D-01
  0.7683168000D+02  0.1323025137D+00
  0.4127808000D+02  0.4180397799D+00
  0.2247729000D+02  0.2520497979D+00
  0.1194776000D+02 -0.3992696208D+00
  0.6278367000D+01 -0.6222584301D+00
  0.3271773000D+01 -0.2187582195D+00
  0.1583984000D+01 -0.1596078223D-01
  0.7314014000D+00 -0.3384216338D-03
  0.3046285000D+00 -0.1115430346D-03
 p   20  1.00
  0.3458384000D+07  0.8127221996D-05
  0.8186839000D+06  0.1859402830D-04
  0.1938025000D+06  0.7609097915D-04
  0.4587777000D+05  0.2514900306D-03
  0.1489352000D+05  0.6866884343D-03
  0.5701807000D+04  0.1923971328D-02
  0.2427804000D+04  0.5131492408D-02
  0.1115536000D+04  0.1271902152D-01
  0.5426889000D+03  0.2656204201D-01
  0.2753364000D+03  0.4157557845D-01
  0.1441628000D+03  0.2710142699D-01
  0.7683168000D+02 -0.5660716788D-01
  0.4127808000D+02 -0.1847846331D+00
  0.2247729000D+02 -0.9691535938D-01
  0.1194776000D+02  0.2364622612D+00
  0.6278367000D+01  0.4302215639D+00
  0.3271773000D+01  0.1745492935D-01
  0.1583984000D+01 -0.5864895881D+00
  0.7314014000D+00 -0.4954653915D+00
  0.3046285000D+00 -0.1022981162D+00
 p    4  1.00
  0.6737396000D+01 -0.2093801313D-01
  0.1452009000D+01  0.1995041251D+00
  0.2509840000D+00 -0.7386614633D+00
  0.9852200000D-01 -0.3743492348D+00
 p    1  1.00
  0.4638308000D-01  0.1000000000D+01
 d   14  1.00
  0.2421548000D+05 -0.5661368649D-04
  0.7333874000D+04 -0.4347205477D-03
  0.2221129000D+04 -0.2957928712D-02
  0.8688958000D+03 -0.1375413366D-01
  0.3876831000D+03 -0.5065407507D-01
  0.1869532000D+03 -0.1416828762D+00
  0.9483085000D+02 -0.2847878723D+00
  0.4949895000D+02 -0.3749474535D+00
  0.2632712000D+02 -0.2641591943D+00
  0.1389218000D+02 -0.7911103830D-01
  0.7173888000D+01 -0.6745921543D-02
  0.3646952000D+01 -0.6860695132D-03
  0.1724477000D+01  0.5813880634D-04
  0.7784328000D+00 -0.3751518435D-04
 d   14  1.00
  0.2421548000D+05 -0.2898780251D-04
  0.7333874000D+04 -0.2236903927D-03
  0.2221129000D+04 -0.1525250725D-02
  0.8688958000D+03 -0.7154349193D-02
  0.3876831000D+03 -0.2661071617D-01
  0.1869532000D+03 -0.7599517209D-01
  0.9483085000D+02 -0.1525846065D+00
  0.4949895000D+02 -0.1865148495D+00
  0.2632712000D+02 -0.1668967179D-01
  0.1389218000D+02  0.3280432856D+00
  0.7173888000D+01  0.4814006645D+00
  0.3646952000D+01  0.2694994820D+00
  0.1724477000D+01  0.4747322519D-01
  0.7784328000D+00  0.7665161764D-03
 d   14  1.00
  0.2421548000D+05 -0.1231067023D-04
  0.7333874000D+04 -0.9571344944D-04
  0.2221129000D+04 -0.6498505466D-03
  0.8688958000D+03 -0.3065001934D-02
  0.3876831000D+03 -0.1137563612D-01
  0.1869532000D+03 -0.3273654609D-01
  0.9483085000D+02 -0.6538053934D-01
  0.4949895000D+02 -0.7945428796D-01
  0.2632712000D+02  0.6949555322D-02
  0.1389218000D+02  0.1739341753D+00
  0.7173888000D+01  0.2563394347D+00
  0.3646952000D+01  0.3476773809D-01
  0.1724477000D+01 -0.4252072265D+00
  0.7784328000D+00 -0.6595337075D+00
 d    1  1.00
  0.3267864000D+00  0.1000000000D+01
 d    1  1.00
  0.1239039000D+00  0.1000000000D+01
 d    3  1.00
  0.1782919000D+01 -0.1312108949D+00
  0.3887190000D+00  0.6359744908D+00
  0.1469070000D+00  0.4898886077D+00
 d    1  1.00
  0.4130130000D-01  0.1000000000D+01
 f   11  1.00
  0.2136926000D+04 -0.3288181345D-04
  0.7543118000D+03 -0.5154203371D-03
  0.2662639000D+03 -0.4610025863D-02
  0.1155679000D+03 -0.2309707632D-01
  0.5547297000D+02 -0.7617819404D-01
  0.2802720000D+02 -0.1795421025D+00
  0.1454203000D+02 -0.2908289640D+00
  0.7525423000D+01 -0.3359346846D+00
  0.3831551000D+01 -0.2709657537D+00
  0.1854285000D+01 -0.1359790419D+00
  0.7926590000D+00 -0.3108378743D-01
 f    5  1.00
  0.1023983000D+03 -0.1707100638D-01
  0.2799958000D+02 -0.9654903607D-01
  0.9044586000D+01 -0.1757830657D+00
  0.1029665000D+01  0.5832332179D+00
  0.3574190000D+00  0.5337881994D+00
 f    1  1.00
  0.1270387000D+00  0.1000000000D+01
 
 
[MO]
 Sym=      1.1
 Ene=   -2898.0841
 Spin= Alpha
 Occup=    2.000000
1 0.99999995604684
2 0.000210244230645
3 -0.000085806606604
4 -0.000042896655181
5 -0.000012876771354
6 -0.000012155643383
7 0.000006190379101
8 -0.000001976667586
9 0.0
10 0.0
11 0.0
12 0.0
13 0.0
14 0.0
15 0.0
16 0.0
17 0.0
18 0.0
19 0.0
20 0.0
21 0.0
22 0.0
23 0.0
24 0.0
25 0.0
26 0.0
27 -0.000000000000043
28 -0.000000000000043
29 0.000000000000085
30 0.0
31 0.0
32 0.0
33 0.000000000000391
34 0.000000000000391
35 -0.000000000000781
36 0.0
37 0.0
38 0.0
39 -0.000000000000454
40 -0.000000000000454
41 0.000000000000907
42 0.0
43 0.0
44 0.0
45 -0.000000000004506
46 -0.000000000004506
47 0.000000000009011
48 0.0
49 0.0
50 0.0
51 -0.000000000001854
52 -0.000000000001854
53 0.000000000003708
54 0.0
55 0.0
56 0.0
57 0.000000000005681
58 0.000000000005681
59 -0.000000000011362
60 0.0
61 0.0
62 0.0
63 -0.000000000000006
64 -0.000000000000006
65 0.000000000000011
66 0.0
67 0.0
68 0.0
69 0.0
70 0.0
71 0.0
72 0.0
73 0.0
74 0.0
75 0.0
76 0.0
77 0.0
78 0.0
79 0.0
80 0.0
81 0.0
82 0.0
83 0.0
84 0.0
85 0.0
86 0.0
87 0.0
88 0.0
89 0.0
90 0.0
91 0.0
92 0.0
93 0.0
94 0.0
95 0.0
96 0.0
97 0.0
98 0.0
 Sym=      2.1
 Ene=    -514.4352
 Spin= Alpha
 Occup=    2.000000
1 -0.000210211746557
2 1.00000010911992
3 -0.000233014149122
4 -0.000096227289093
5 -0.000029076102252
6 -0.000024451093743
7 0.000004400680577
8 -0.000001522865952
9 0.0
10 0.0
11 0.0
12 0.0
13 0.0
14 0.0
15 0.0
16 0.0
17 0.0
18 0.0
19 0.0
20 0.0
21 0.0
22 0.0
23 0.0
24 0.0
25 0.0
26 0.0
27 -0.000000000005210
28 -0.000000000005209
29 0.000000000010419
30 0.0
31 0.0
32 0.0
33 -0.000000000003773
34 -0.000000000003772
35 0.000000000007545
36 0.0
37 0.0
38 0.0
39 0.000000000001735
40 0.000000000001735
41 -0.000000000003470
42 0.0
43 0.0
44 0.0
45 0.000000000026336
46 0.000000000026336
47 -0.000000000052672
48 0.0
49 0.0
50 0.0
51 0.000000000011546
52 0.000000000011545
53 -0.000000000023091
54 0.0
55 0.0
56 0.0
57 -0.000000000034190
58 -0.000000000034189
59 0.000000000068380
60 0.0
61 0.0
62 0.0
63 -0.000000000000167
64 -0.000000000000167
65 0.000000000000335
66 0.0
67 0.0
68 0.0
69 0.0
70 0.0
71 0.0
72 0.0
73 0.0
74 0.0
75 0.0
76 0.0
77 0.0
78 0.0
79 0.0
80 0.0
81 0.0
82 0.0
83 0.0
84 0.0
85 0.0
86 0.0
87 0.0
88 0.0
89 0.0
90 0.0
91 0.0
92 0.0
93 0.0
94 0.0
95 0.0
96 0.0
97 0.0
98 0.0
 Sym=      1.5
 Ene=    -447.2585
 Spin= Alpha
 Occup=    2.000000
1 0.0
2 0.0
3 0.0
4 0.0
5 0.0
6 0.0
7 0.0
8 0.0
9 0.0
10 0.0
11 1.00000000000511
12 0.0
13 0.0
14 0.000001494190544
15 0.0
16 0.0
17 -0.000000401366618
18 0.0
19 0.0
20 0.000000049051635
21 0.0
22 0.0
23 -0.000000202653078
24 0.0
25 0.0
26 -0.000000403276866
27 0.0
28 0.0
29 0.0
30 0.0
31 0.0
32 0.0
33 0.0
34 0.0
35 0.0
36 0.0
37 0.0
38 0.0
39 0.0
40 0.0
41 0.0
42 0.0
43 0.0
44 0.0
45 0.0
46 0.0
47 0.0
48 0.0
49 0.0
50 0.0
51 0.0
52 0.0
53 0.0
54 0.0
55 0.0
56 0.0
57 0.0
58 0.0
59 0.0
60 0.0
61 0.0
62 0.0
63 0.0
64 0.0
65 0.0
66 0.0
67 0.0
68 0.0
69 0.0
70 0.0
71 -0.000000000001497
72 0.0
73 0.0
74 0.000000000001004
75 0.0
76 0.0
77 0.000000000001004
78 0.0
79 0.0
80 0.0
81 -0.000000000000835
82 0.0
83 0.0
84 0.000000000000560
85 0.0
86 0.0
87 0.000000000000560
88 0.0
89 0.0
90 0.0
91 0.000000000000170
92 0.0
93 0.0
94 -0.000000000000114
95 0.0
96 0.0
97 -0.000000000000114
98 0.0
 Sym=      1.2
 Ene=    -447.2585
 Spin= Alpha
 Occup=    2.000000
1 0.0
2 0.0
3 0.0
4 0.0
5 0.0
6 0.0
7 0.0
8 0.0
9 1.00000000000511
10 0.0
11 0.0
12 0.000001494194058
13 0.0
14 0.0
15 -0.000000401364748
16 0.0
17 0.0
18 0.000000049048911
19 0.0
20 0.0
21 -0.000000202651378
22 0.0
23 0.0
24 -0.000000403276821
25 0.0
26 0.0
27 0.0
28 0.0
29 0.0
30 0.0
31 0.0
32 0.0
33 0.0
34 0.0
35 0.0
36 0.0
37 0.0
38 0.0
39 0.0
40 0.0
41 0.0
42 0.0
43 0.0
44 0.0
45 0.0
46 0.0
47 0.0
48 0.0
49 0.0
50 0.0
51 0.0
52 0.0
53 0.0
54 0.0
55 0.0
56 0.0
57 0.0
58 0.0
59 0.0
60 0.0
61 0.0
62 0.0
63 0.0
64 0.0
65 0.0
66 0.0
67 0.0
68 0.0
69 0.000000000000798
70 0.0
71 0.0
72 0.000000000000621
73 0.0
74 0.0
75 -0.000000000001692
76 0.0
77 0.0
78 0.0
79 0.000000000000460
80 0.0
81 0.0
82 0.000000000001054
83 0.0
84 0.0
85 -0.000000000001671
86 0.0
87 0.0
88 0.0
89 -0.000000000000371
90 0.0
91 0.0
92 -0.000000000000476
93 0.0
94 0.0
95 0.000000000000974
96 0.0
97 0.0
98 0.0
 Sym=      1.3
 Ene=    -447.2585
 Spin= Alpha
 Occup=    2.000000
1 0.0
2 0.0
3 0.0
4 0.0
5 0.0
6 0.0
7 0.0
8 0.0
9 0.0
10 1.00000000000511
11 0.0
12 0.0
13 0.000001494194088
14 0.0
15 0.0
16 -0.000000401364755
17 0.0
18 0.0
19 0.000000049048918
20 0.0
21 0.0
22 -0.000000202651381
23 0.0
24 0.0
25 -0.000000403276821
26 0.0
27 0.0
28 0.0
29 0.0
30 0.0
31 0.0
32 0.0
33 0.0
34 0.0
35 0.0
36 0.0
37 0.0
38 0.0
39 0.0
40 0.0
41 0.0
42 0.0
43 0.0
44 0.0
45 0.0
46 0.0
47 0.0
48 0.0
49 0.0
50 0.0
51 0.0
52 0.0
53 0.0
54 0.0
55 0.0
56 0.0
57 0.0
58 0.0
59 0.0
60 0.0
61 0.0
62 0.0
63 0.0
64 0.0
65 0.0
66 0.0
67 0.0
68 0.0
69 0.0
70 0.000000000000798
71 0.0
72 0.0
73 0.000000000000621
74 0.0
75 0.0
76 -0.000000000001692
77 0.0
78 0.0
79 0.0
80 0.000000000000460
81 0.0
82 0.0
83 0.000000000001054
84 0.0
85 0.0
86 -0.000000000001671
87 0.0
88 0.0
89 0.0
90 -0.000000000000371
91 0.0
92 0.0
93 -0.000000000000476
94 0.0
95 0.0
96 0.000000000000974
97 0.0
98 0.0
 Sym=      3.1
 Ene=    -123.2163
 Spin= Alpha
 Occup=    2.000000
1 0.000086363435894
2 0.000233127158480
3 0.99999632927419
4 0.000228064193973
5 0.000046449145266
6 0.000065045673809
7 -0.000100339829504
8 0.000030976611020
9 0.0
10 0.0
11 0.0
12 0.0
13 0.0
14 0.0
15 0.0
16 0.0
17 0.0
18 0.0
19 0.0
20 0.0
21 0.0
22 0.0
23 0.0
24 0.0
25 0.0
26 0.0
27 -0.000000000094517
28 -0.000000000094491
29 0.000000000189008
30 0.0
31 0.0
32 0.0
33 0.000000000030143
34 0.000000000030144
35 -0.000000000060287
36 0.0
37 0.0
38 0.0
39 -0.000000000005510
40 -0.000000000005510
41 0.000000000011020
42 0.0
43 0.0
44 0.0
45 -0.000000000139449
46 -0.000000000139448
47 0.000000000278897
48 0.0
49 0.0
50 0.0
51 -0.000000000065203
52 -0.000000000065202
53 0.000000000130405
54 0.0
55 0.0
56 0.0
57 0.000000000186133
58 0.000000000186130
59 -0.000000000372263
60 0.0
61 0.0
62 0.0
63 0.000000000001908
64 0.000000000001908
65 -0.000000000003816
66 0.0
67 0.0
68 0.0
69 0.0
70 0.0
71 0.0
72 0.0
73 0.0
74 0.0
75 0.0
76 0.0
77 0.0
78 0.0
79 0.0
80 0.0
81 0.0
82 0.0
83 0.0
84 0.0
85 0.0
86 0.0
87 0.0
88 0.0
89 0.0
90 0.0
91 0.0
92 0.0
93 0.0
94 0.0
95 0.0
96 0.0
97 0.0
98 0.0
 Sym=      2.5
 Ene=    -103.2581
 Spin= Alpha
 Occup=    2.000000
1 0.0
2 0.0
3 0.0
4 0.0
5 0.0
6 0.0
7 0.0
8 0.0
9 0.0
10 0.0
11 -0.000001528190320
12 0.0
13 0.0
14 0.99999999317709
15 0.0
16 0.0
17 0.000002146948885
18 0.0
19 0.0
20 -0.000001934382398
21 0.0
22 0.0
23 -0.000002115200759
24 0.0
25 0.0
26 -0.000002905775837
27 0.0
28 0.0
29 0.0
30 0.0
31 0.0
32 0.0
33 0.0
34 0.0
35 0.0
36 0.0
37 0.0
38 0.0
39 0.0
40 0.0
41 0.0
42 0.0
43 0.0
44 0.0
45 0.0
46 0.0
47 0.0
48 0.0
49 0.0
50 0.0
51 0.0
52 0.0
53 0.0
54 0.0
55 0.0
56 0.0
57 0.0
58 0.0
59 0.0
60 0.0
61 0.0
62 0.0
63 0.0
64 0.0
65 0.0
66 0.0
67 0.0
68 0.0
69 0.0
70 0.0
71 0.000000000060981
72 0.0
73 0.0
74 -0.000000000040908
75 0.0
76 0.0
77 -0.000000000040906
78 0.0
79 0.0
80 0.0
81 0.000000000027450
82 0.0
83 0.0
84 -0.000000000018415
85 0.0
86 0.0
87 -0.000000000018414
88 0.0
89 0.0
90 0.0
91 -0.000000000011322
92 0.0
93 0.0
94 0.000000000007595
95 0.0
96 0.0
97 0.000000000007595
98 0.0
 Sym=      2.2
 Ene=    -103.2581
 Spin= Alpha
 Occup=    2.000000
1 0.0
2 0.0
3 0.0
4 0.0
5 0.0
6 0.0
7 0.0
8 0.0
9 -0.000001528193828
10 0.0
11 0.0
12 0.99999999317710
13 0.0
14 0.0
15 0.000002146925561
16 0.0
17 0.0
18 -0.000001934401670
19 0.0
20 0.0
21 -0.000002115187214
22 0.0
23 0.0
24 -0.000002905773760
25 0.0
26 0.0
27 0.0
28 0.0
29 0.0
30 0.0
31 0.0
32 0.0
33 0.0
34 0.0
35 0.0
36 0.0
37 0.0
38 0.0
39 0.0
40 0.0
41 0.0
42 0.0
43 0.0
44 0.0
45 0.0
46 0.0
47 0.0
48 0.0
49 0.0
50 0.0
51 0.0
52 0.0
53 0.0
54 0.0
55 0.0
56 0.0
57 0.0
58 0.0
59 0.0
60 0.0
61 0.0
62 0.0
63 0.0
64 0.0
65 0.0
66 0.0
67 0.0
68 0.0
69 -0.000000000031416
70 0.0
71 0.0
72 -0.000000000015785
73 0.0
74 0.0
75 0.000000000057935
76 0.0
77 0.0
78 0.0
79 -0.000000000016336
80 0.0
81 0.0
82 0.000000000001333
83 0.0
84 0.0
85 0.000000000020584
86 0.0
87 0.0
88 0.0
89 0.000000000005835
90 0.0
91 0.0
92 -0.000000000000856
93 0.0
94 0.0
95 -0.000000000006973
96 0.0
97 0.0
98 0.0
 Sym=      2.3
 Ene=    -103.2581
 Spin= Alpha
 Occup=    2.000000
1 0.0
2 0.0
3 0.0
4 0.0
5 0.0
6 0.0
7 0.0
8 0.0
9 0.0
10 -0.000001528193858
11 0.0
12 0.0
13 0.99999999317710
14 0.0
15 0.0
16 0.000002146925476
17 0.0
18 0.0
19 -0.000001934401697
20 0.0
21 0.0
22 -0.000002115187209
23 0.0
24 0.0
25 -0.000002905773763
26 0.0
27 0.0
28 0.0
29 0.0
30 0.0
31 0.0
32 0.0
33 0.0
34 0.0
35 0.0
36 0.0
37 0.0
38 0.0
39 0.0
40 0.0
41 0.0
42 0.0
43 0.0
44 0.0
45 0.0
46 0.0
47 0.0
48 0.0
49 0.0
50 0.0
51 0.0
52 0.0
53 0.0
54 0.0
55 0.0
56 0.0
57 0.0
58 0.0
59 0.0
60 0.0
61 0.0
62 0.0
63 0.0
64 0.0
65 0.0
66 0.0
67 0.0
68 0.0
69 0.0
70 -0.000000000031412
71 0.0
72 0.0
73 -0.000000000015790
74 0.0
75 0.0
76 0.000000000057933
77 0.0
78 0.0
79 0.0
80 -0.000000000016334
81 0.0
82 0.0
83 0.000000000001331
84 0.0
85 0.0
86 0.000000000020583
87 0.0
88 0.0
89 0.0
90 0.000000000005835
91 0.0
92 0.0
93 -0.000000000000855
94 0.0
95 0.0
96 -0.000000000006973
97 0.0
98 0.0
 Sym=      4.1
 Ene=     -80.7532
 Spin= Alpha
 Occup=    2.000000
1 -0.000000000000053
2 -0.000000000010751
3 -0.000000000185796
4 -0.000000000074809
5 -0.000000000006774
6 -0.000000000015920
7 0.000000000015923
8 -0.000000000005766
9 0.0
10 0.0
11 0.0
12 0.0
13 0.0
14 0.0
15 0.0
16 0.0
17 0.0
18 0.0
19 0.0
20 0.0
21 0.0
22 0.0
23 0.0
24 0.0
25 0.0
26 0.0
27 -0.49997781741304
28 -0.50002209031131
29 0.99999990772435
30 0.0
31 0.0
32 0.0
33 -0.000002119645717