Warning: no access to tty (Bad file number).
Thus no job control in this shell.
 Entering Gaussian System, Link 0=g03
 Initial command:
 /usr/local/g03/g03/l1.exe /work/46869.titan/Gau-978811.inp -scrdir=/work/46869.titan/
 Entering Link 1 = /usr/local/g03/g03/l1.exe PID=    979764.
  
 Copyright (c) 1988,1990,1992,1993,1995,1998,2003,2004, Gaussian, Inc.
                  All Rights Reserved.
  
 This is the Gaussian(R) 03 program.  It is based on the
 the Gaussian(R) 98 system (copyright 1998, Gaussian, Inc.),
 the Gaussian(R) 94 system (copyright 1995, Gaussian, Inc.),
 the Gaussian 92(TM) system (copyright 1992, Gaussian, Inc.),
 the Gaussian 90(TM) system (copyright 1990, Gaussian, Inc.),
 the Gaussian 88(TM) system (copyright 1988, Gaussian, Inc.),
 the Gaussian 86(TM) system (copyright 1986, Carnegie Mellon
 University), and the Gaussian 82(TM) system (copyright 1983,
 Carnegie Mellon University). Gaussian is a federally registered
 trademark of Gaussian, Inc.
  
 This software contains proprietary and confidential information,
 including trade secrets, belonging to Gaussian, Inc.
  
 This software is provided under written license and may be
 used, copied, transmitted, or stored only in accord with that
 written license.
  
 The following legend is applicable only to US Government
 contracts under FAR:
  
                    RESTRICTED RIGHTS LEGEND
  
 Use, reproduction and disclosure by the US Government is
 subject to restrictions as set forth in subparagraphs (a)
 and (c) of the Commercial Computer Software - Restricted
 Rights clause in FAR 52.227-19.
  
 Gaussian, Inc.
 340 Quinnipiac St., Bldg. 40, Wallingford CT 06492
  
  
 ---------------------------------------------------------------
 Warning -- This program may not be used in any manner that
 competes with the business of Gaussian, Inc. or will provide
 assistance to any competitor of Gaussian, Inc.  The licensee
 of this program is prohibited from giving any competitor of
 Gaussian, Inc. access to this program.  By using this program,
 the user acknowledges that Gaussian, Inc. is engaged in the
 business of creating and licensing software in the field of
 computational chemistry and represents and warrants to the
 licensee that it is not a competitor of Gaussian, Inc. and that
 it will not use this program in any manner prohibited above.
 ---------------------------------------------------------------
  

 Cite this work as:
 Gaussian 03, Revision C.02,
 M. J. Frisch, G. W. Trucks, H. B. Schlegel, G. E. Scuseria, 
 M. A. Robb, J. R. Cheeseman, J. A. Montgomery, Jr., T. Vreven, 
 K. N. Kudin, J. C. Burant, J. M. Millam, S. S. Iyengar, J. Tomasi, 
 V. Barone, B. Mennucci, M. Cossi, G. Scalmani, N. Rega, 
 G. A. Petersson, H. Nakatsuji, M. Hada, M. Ehara, K. Toyota, 
 R. Fukuda, J. Hasegawa, M. Ishida, T. Nakajima, Y. Honda, O. Kitao, 
 H. Nakai, M. Klene, X. Li, J. E. Knox, H. P. Hratchian, J. B. Cross, 
 C. Adamo, J. Jaramillo, R. Gomperts, R. E. Stratmann, O. Yazyev, 
 A. J. Austin, R. Cammi, C. Pomelli, J. W. Ochterski, P. Y. Ayala, 
 K. Morokuma, G. A. Voth, P. Salvador, J. J. Dannenberg, 
 V. G. Zakrzewski, S. Dapprich, A. D. Daniels, M. C. Strain, 
 O. Farkas, D. K. Malick, A. D. Rabuck, K. Raghavachari, 
 J. B. Foresman, J. V. Ortiz, Q. Cui, A. G. Baboul, S. Clifford, 
 J. Cioslowski, B. B. Stefanov, G. Liu, A. Liashenko, P. Piskorz, 
 I. Komaromi, R. L. Martin, D. J. Fox, T. Keith, M. A. Al-Laham, 
 C. Y. Peng, A. Nanayakkara, M. Challacombe, P. M. W. Gill, 
 B. Johnson, W. Chen, M. W. Wong, C. Gonzalez, and J. A. Pople, 
 Gaussian, Inc., Wallingford CT, 2004.
 
 ******************************************
 Gaussian 03:  SGI64-G03RevC.02 12-Jun-2004
                 2-Nov-2005 
 ******************************************
 %Mem=800MB
 %NProc=4
 Will use up to    4 processors via shared memory.
 ---------------------------------------------------------------
 # HF/aug-cc-pVTZ SCF=tight 6D 10F Gfinput PUNCH=MO Freq=HPModes
 ---------------------------------------------------------------
 1/10=4,30=1,38=1/1,3;
 2/17=6,18=5,40=1/2;
 3/5=16,6=1,7=10,8=22,11=9,16=1,24=10,25=1,30=1/1,2,3;
 4//1;
 5/5=2,32=2,38=5/2;
 8/6=4,10=90,11=11/1;
 10/13=10/2;
 11/6=2,8=1,9=11,15=111,16=1/1,2,10;
 10/6=1/2;
 6/7=2,8=2,9=2,10=2,18=1,28=1/1;
 7/8=11,10=1,25=1/1,2,3,16;
 1/10=4,30=1/3;
 99/10=32/99;
 ----
 SiF4
 ----
 Symbolic Z-matrix:
 Charge =  0 Multiplicity = 1
 Si
 F                    1    R
 F                    1    R        2    T
 F                    1    R        2    T        3     120.     0
 F                    1    R        2    T        3    -120.     0
       Variables:
  R                     1.54571                  
  T                   109.47122                  
 
     3 tetrahedral angles replaced.
    3 tetrahedral angles replaced.

 GradGradGradGradGradGradGradGradGradGradGradGradGradGradGradGradGradGrad
 Berny optimization.
 Initialization pass.
                       ----------------------------
                       !    Initial Parameters    !
                       ! (Angstroms and Degrees)  !
 ----------------------                            ----------------------
 !      Name          Value   Derivative information (Atomic Units)     !
 ------------------------------------------------------------------------
 !        R          1.5457   calculate D2E/DX2 analytically            !
 !        T        109.4712   calculate D2E/DX2 analytically            !
 ------------------------------------------------------------------------
 Trust Radius=3.00D-01 FncErr=1.00D-07 GrdErr=1.00D-07
 Number of steps in this run=   2 maximum allowed number of steps=   2.
 GradGradGradGradGradGradGradGradGradGradGradGradGradGradGradGradGradGrad

                          Input orientation:                          
 ---------------------------------------------------------------------
 Center     Atomic     Atomic              Coordinates (Angstroms)
 Number     Number      Type              X           Y           Z
 ---------------------------------------------------------------------
    1         14             0        0.000000    0.000000    0.000000
    2          9             0        0.000000    0.000000    1.545708
    3          9             0        1.457307    0.000000   -0.515236
    4          9             0       -0.728654   -1.262065   -0.515236
    5          9             0       -0.728654    1.262065   -0.515236
 ---------------------------------------------------------------------
                    Distance matrix (angstroms):
                    1          2          3          4          5
     1  Si   0.000000
     2  F    1.545708   0.000000
     3  F    1.545708   2.524130   0.000000
     4  F    1.545708   2.524130   2.524130   0.000000
     5  F    1.545708   2.524130   2.524130   2.524130   0.000000
 Stoichiometry    F4Si
 Framework group  TD[O(Si),4C3(F)]
 Deg. of freedom     1
 Full point group                 TD      NOp  24
 Largest Abelian subgroup         D2      NOp   4
 Largest concise Abelian subgroup D2      NOp   4
                         Standard orientation:                         
 ---------------------------------------------------------------------
 Center     Atomic     Atomic              Coordinates (Angstroms)
 Number     Number      Type              X           Y           Z
 ---------------------------------------------------------------------
    1         14             0        0.000000    0.000000    0.000000
    2          9             0        0.892415    0.892415    0.892415
    3          9             0       -0.892415   -0.892415    0.892415
    4          9             0       -0.892415    0.892415   -0.892415
    5          9             0        0.892415   -0.892415   -0.892415
 ---------------------------------------------------------------------
 Rotational constants (GHZ):      4.1751947      4.1751947      4.1751947
 Standard basis: Aug-CC-pVTZ (6D, 10F)
 AO basis set in the form of general basis input:
  1 0
 S  11 1.00       0.000000000000
      0.2549000000D+06  0.6259454587D-04
      0.3819000000D+05  0.4862070436D-03
      0.8690000000D+04  0.2548609738D-02
      0.2462000000D+04  0.1060105144D-01
      0.8048000000D+03  0.3692994503D-01
      0.2913000000D+03  0.1076356905D+00
      0.1136000000D+03  0.2483387413D+00
      0.4675000000D+02  0.3917442532D+00
      0.1982000000D+02  0.3030081137D+00
      0.7708000000D+01  0.5545673652D-01
      0.3340000000D+01 -0.7135272198D-02
 S  11 1.00       0.000000000000
      0.2549000000D+06  0.4011785433D-06
      0.3819000000D+05  0.3058719263D-05
      0.8690000000D+04  0.1502997647D-04
      0.2462000000D+04  0.4502390871D-04
      0.2913000000D+03 -0.1266002594D-02
      0.1136000000D+03 -0.1006734813D-01
      0.4675000000D+02 -0.4737784997D-01
      0.1982000000D+02 -0.9744253676D-01
      0.7708000000D+01  0.9449527074D-01
      0.3340000000D+01  0.5426692785D+00
      0.1402000000D+01  0.4752526204D+00
 S  11 1.00       0.000000000000
      0.2549000000D+06 -0.9639289733D-08
      0.3819000000D+05 -0.6815112801D-07
      0.8690000000D+04 -0.5430989250D-07
      0.2462000000D+04 -0.2225080935D-05
      0.2913000000D+03 -0.3675111577D-04
      0.1136000000D+03  0.1916046946D-04
      0.1982000000D+02  0.2219009176D-02
      0.7708000000D+01 -0.3738426098D-02
      0.3340000000D+01 -0.6219870833D-01
      0.1402000000D+01 -0.3088697837D+00
      0.2070000000D+00  0.1139437590D+01
 S   1 1.00       0.000000000000
      0.4387000000D+00  0.1000000000D+01
 S   1 1.00       0.000000000000
      0.7944000000D-01  0.1000000000D+01
 P   6 1.00       0.000000000000
      0.4815000000D+03  0.2085549471D-02
      0.1139000000D+03  0.1667619837D-01
      0.3623000000D+02  0.7753893526D-01
      0.1334000000D+02  0.2313987378D+00
      0.5252000000D+01  0.4239367733D+00
      0.2120000000D+01  0.4277947460D+00
 P   6 1.00       0.000000000000
      0.4815000000D+03  0.1088933479D-04
      0.1139000000D+03 -0.1312701062D-03
      0.1334000000D+02 -0.6072647947D-02
      0.5252000000D+01 -0.3540085610D-02
      0.2120000000D+01 -0.5109971270D-01
      0.2528000000D+00  0.1014431383D+01
 P   1 1.00       0.000000000000
      0.8561000000D+00  0.1000000000D+01
 P   1 1.00       0.000000000000
      0.7889000000D-01  0.1000000000D+01
 D   1 1.00       0.000000000000
      0.1590000000D+00  0.1000000000D+01
 D   1 1.00       0.000000000000
      0.4810000000D+00  0.1000000000D+01
 F   1 1.00       0.000000000000
      0.3360000000D+00  0.1000000000D+01
 S   1 1.00       0.000000000000
      0.3300000000D-01  0.1000000000D+01
 P   1 1.00       0.000000000000
      0.2370000000D-01  0.1000000000D+01
 D   1 1.00       0.000000000000
      0.5560000000D-01  0.1000000000D+01
 F   1 1.00       0.000000000000
      0.1250000000D+00  0.1000000000D+01
 ****
  2 0
 S   7 1.00       0.000000000000
      0.1950000000D+05  0.5190024441D-03
      0.2923000000D+04  0.4015781354D-02
      0.6645000000D+03  0.2067746110D-01
      0.1875000000D+03  0.8086901703D-01
      0.6062000000D+02  0.2358075463D+00
      0.2142000000D+02  0.4425823060D+00
      0.7950000000D+01  0.3569628672D+00
 S   7 1.00       0.000000000000
      0.1950000000D+05  0.9720399405D-05
      0.2923000000D+04  0.6332758211D-04
      0.6645000000D+03  0.2887812714D-03
      0.6062000000D+02 -0.7084819492D-02
      0.2142000000D+02 -0.6294853050D-01
      0.7950000000D+01 -0.1638259029D+00
      0.8815000000D+00  0.1071183841D+01
 S   1 1.00       0.000000000000
      0.2257000000D+01  0.1000000000D+01
 S   1 1.00       0.000000000000
      0.3041000000D+00  0.1000000000D+01
 P   3 1.00       0.000000000000
      0.4388000000D+02  0.4190462069D-01
      0.9926000000D+01  0.2626978417D+00
      0.2930000000D+01  0.7977593735D+00
 P   1 1.00       0.000000000000
      0.9132000000D+00  0.1000000000D+01
 P   1 1.00       0.000000000000
      0.2672000000D+00  0.1000000000D+01
 D   1 1.00       0.000000000000
      0.3107000000D+01  0.1000000000D+01
 D   1 1.00       0.000000000000
      0.8550000000D+00  0.1000000000D+01
 F   1 1.00       0.000000000000
      0.1917000000D+01  0.1000000000D+01
 S   1 1.00       0.000000000000
      0.9158000000D-01  0.1000000000D+01
 P   1 1.00       0.000000000000
      0.7361000000D-01  0.1000000000D+01
 D   1 1.00       0.000000000000
      0.2920000000D+00  0.1000000000D+01
 F   1 1.00       0.000000000000
      0.7240000000D+00  0.1000000000D+01
 ****
  3 0
 S   7 1.00       0.000000000000
      0.1950000000D+05  0.5190024441D-03
      0.2923000000D+04  0.4015781354D-02
      0.6645000000D+03  0.2067746110D-01
      0.1875000000D+03  0.8086901703D-01
      0.6062000000D+02  0.2358075463D+00
      0.2142000000D+02  0.4425823060D+00
      0.7950000000D+01  0.3569628672D+00
 S   7 1.00       0.000000000000
      0.1950000000D+05  0.9720399405D-05
      0.2923000000D+04  0.6332758211D-04
      0.6645000000D+03  0.2887812714D-03
      0.6062000000D+02 -0.7084819492D-02
      0.2142000000D+02 -0.6294853050D-01
      0.7950000000D+01 -0.1638259029D+00
      0.8815000000D+00  0.1071183841D+01
 S   1 1.00       0.000000000000
      0.2257000000D+01  0.1000000000D+01
 S   1 1.00       0.000000000000
      0.3041000000D+00  0.1000000000D+01
 P   3 1.00       0.000000000000
      0.4388000000D+02  0.4190462069D-01
      0.9926000000D+01  0.2626978417D+00
      0.2930000000D+01  0.7977593735D+00
 P   1 1.00       0.000000000000
      0.9132000000D+00  0.1000000000D+01
 P   1 1.00       0.000000000000
      0.2672000000D+00  0.1000000000D+01
 D   1 1.00       0.000000000000
      0.3107000000D+01  0.1000000000D+01
 D   1 1.00       0.000000000000
      0.8550000000D+00  0.1000000000D+01
 F   1 1.00       0.000000000000
      0.1917000000D+01  0.1000000000D+01
 S   1 1.00       0.000000000000
      0.9158000000D-01  0.1000000000D+01
 P   1 1.00       0.000000000000
      0.7361000000D-01  0.1000000000D+01
 D   1 1.00       0.000000000000
      0.2920000000D+00  0.1000000000D+01
 F   1 1.00       0.000000000000
      0.7240000000D+00  0.1000000000D+01
 ****
  4 0
 S   7 1.00       0.000000000000
      0.1950000000D+05  0.5190024441D-03
      0.2923000000D+04  0.4015781354D-02
      0.6645000000D+03  0.2067746110D-01
      0.1875000000D+03  0.8086901703D-01
      0.6062000000D+02  0.2358075463D+00
      0.2142000000D+02  0.4425823060D+00
      0.7950000000D+01  0.3569628672D+00
 S   7 1.00       0.000000000000
      0.1950000000D+05  0.9720399405D-05
      0.2923000000D+04  0.6332758211D-04
      0.6645000000D+03  0.2887812714D-03
      0.6062000000D+02 -0.7084819492D-02
      0.2142000000D+02 -0.6294853050D-01
      0.7950000000D+01 -0.1638259029D+00
      0.8815000000D+00  0.1071183841D+01
 S   1 1.00       0.000000000000
      0.2257000000D+01  0.1000000000D+01
 S   1 1.00       0.000000000000
      0.3041000000D+00  0.1000000000D+01
 P   3 1.00       0.000000000000
      0.4388000000D+02  0.4190462069D-01
      0.9926000000D+01  0.2626978417D+00
      0.2930000000D+01  0.7977593735D+00
 P   1 1.00       0.000000000000
      0.9132000000D+00  0.1000000000D+01
 P   1 1.00       0.000000000000
      0.2672000000D+00  0.1000000000D+01
 D   1 1.00       0.000000000000
      0.3107000000D+01  0.1000000000D+01
 D   1 1.00       0.000000000000
      0.8550000000D+00  0.1000000000D+01
 F   1 1.00       0.000000000000
      0.1917000000D+01  0.1000000000D+01
 S   1 1.00       0.000000000000
      0.9158000000D-01  0.1000000000D+01
 P   1 1.00       0.000000000000
      0.7361000000D-01  0.1000000000D+01
 D   1 1.00       0.000000000000
      0.2920000000D+00  0.1000000000D+01
 F   1 1.00       0.000000000000
      0.7240000000D+00  0.1000000000D+01
 ****
  5 0
 S   7 1.00       0.000000000000
      0.1950000000D+05  0.5190024441D-03
      0.2923000000D+04  0.4015781354D-02
      0.6645000000D+03  0.2067746110D-01
      0.1875000000D+03  0.8086901703D-01
      0.6062000000D+02  0.2358075463D+00
      0.2142000000D+02  0.4425823060D+00
      0.7950000000D+01  0.3569628672D+00
 S   7 1.00       0.000000000000
      0.1950000000D+05  0.9720399405D-05
      0.2923000000D+04  0.6332758211D-04
      0.6645000000D+03  0.2887812714D-03
      0.6062000000D+02 -0.7084819492D-02
      0.2142000000D+02 -0.6294853050D-01
      0.7950000000D+01 -0.1638259029D+00
      0.8815000000D+00  0.1071183841D+01
 S   1 1.00       0.000000000000
      0.2257000000D+01  0.1000000000D+01
 S   1 1.00       0.000000000000
      0.3041000000D+00  0.1000000000D+01
 P   3 1.00       0.000000000000
      0.4388000000D+02  0.4190462069D-01
      0.9926000000D+01  0.2626978417D+00
      0.2930000000D+01  0.7977593735D+00
 P   1 1.00       0.000000000000
      0.9132000000D+00  0.1000000000D+01
 P   1 1.00       0.000000000000
      0.2672000000D+00  0.1000000000D+01
 D   1 1.00       0.000000000000
      0.3107000000D+01  0.1000000000D+01
 D   1 1.00       0.000000000000
      0.8550000000D+00  0.1000000000D+01
 F   1 1.00       0.000000000000
      0.1917000000D+01  0.1000000000D+01
 S   1 1.00       0.000000000000
      0.9158000000D-01  0.1000000000D+01
 P   1 1.00       0.000000000000
      0.7361000000D-01  0.1000000000D+01
 D   1 1.00       0.000000000000
      0.2920000000D+00  0.1000000000D+01
 F   1 1.00       0.000000000000
      0.7240000000D+00  0.1000000000D+01
 ****

 There are    72 symmetry adapted basis functions of A   symmetry.
 There are    69 symmetry adapted basis functions of B1  symmetry.
 There are    69 symmetry adapted basis functions of B2  symmetry.
 There are    69 symmetry adapted basis functions of B3  symmetry.
 Integral buffers will be    131072 words long.
 Raffenetti 1 integral format.
 Two-electron integral symmetry is turned on.
   279 basis functions,   411 primitive gaussians,   279 cartesian basis functions
    25 alpha electrons       25 beta electrons
       nuclear repulsion energy       274.4344118898 Hartrees.
 NAtoms=    5 NActive=    5 NUniq=    2 SFac= 5.66D+00 NAtFMM=   60 Big=F
 One-electron integrals computed using PRISM.
 NBasis=   279 RedAO= T  NBF=    72    69    69    69
 NBsUse=   279 1.00D-06 NBFU=    72    69    69    69
 Harris functional with IExCor=  205 diagonalized for initial guess.
 ExpMin= 2.37D-02 ExpMax= 2.55D+05 ExpMxC= 2.46D+03 IAcc=3 IRadAn=         5 AccDes= 0.00D+00
 HarFok:  IExCor= 205 AccDes= 0.00D+00 IRadAn=         5 IDoV=1
 ScaDFX=  1.000000  1.000000  1.000000  1.000000
 Initial guess orbital symmetries:
       Occupied  (A1) (A1) (T2) (T2) (T2) (A1) (T2) (T2) (T2) (A1)
                 (T2) (T2) (T2) (A1) (T2) (T2) (T2) (E) (E) (T2)
                 (T2) (T2) (T1) (T1) (T1)
       Virtual   (A1) (T2) (T2) (T2) (A1) (T2) (T2) (T2) (T2) (T2)
                 (T2) (E) (E) (A1) (A1) (T2) (T2) (T2) (T2) (T2)
                 (T2) (T1) (T1) (T1) (E) (E) (T2) (T2) (T2) (T2)
                 (T2) (T2) (E) (E) (A1) (A1) (T2) (T2) (T2) (T1)
                 (T1) (T1) (T2) (T2) (T2) (A1) (E) (E) (T2) (T2)
                 (T2) (T1) (T1) (T1) (A1) (T2) (T2) (T2) (E) (E)
                 (T2) (T2) (T2) (T1) (T1) (T1) (T2) (T2) (T2) (E)
                 (E) (A1) (T1) (T1) (T1) (T2) (T2) (T2) (T2) (T2)
                 (T2) (T2) (T2) (T2) (A1) (T1) (T1) (T1) (A1) (E)
                 (E) (T2) (T2) (T2) (A1) (T2) (T2) (T2) (T2) (T2)
                 (T2) (T1) (T1) (T1) (E) (E) (T1) (T1) (T1) (T2)
                 (T2) (T2) (E) (E) (T2) (T2) (T2) (A2) (T2) (T2)
                 (T2) (T1) (T1) (T1) (T2) (T2) (T2) (A1) (E) (E)
                 (T1) (T1) (T1) (A1) (T2) (T2) (T2) (E) (E) (A1)
                 (T2) (T2) (T2) (T1) (T1) (T1) (A1) (T2) (T2) (T2)
                 (E) (E) (T1) (T1) (T1) (A1) (T2) (T2) (T2) (T2)
                 (T2) (T2) (T2) (T2) (T2) (A1) (T2) (T2) (T2) (A1)
                 (T2) (T2) (T2) (T1) (T1) (T1) (T2) (T2) (T2) (E)
                 (E) (T2) (T2) (T2) (A1) (E) (E) (A2) (T2) (T2)
                 (T2) (T1) (T1) (T1) (T1) (T1) (T1) (A1) (E) (E)
                 (T2) (T2) (T2) (E) (E) (T1) (T1) (T1) (T2) (T2)
                 (T2) (T1) (T1) (T1) (T2) (T2) (T2) (T2) (T2) (T2)
                 (A1) (E) (E) (T1) (T1) (T1) (T2) (T2) (T2) (A1)
                 (T2) (T2) (T2) (A1) (T2) (T2) (T2) (T1) (T1) (T1)
                 (T2) (T2) (T2) (E) (E) (T2) (T2) (T2) (A1) (A1)
                 (T2) (T2) (T2) (A1)
 The electronic state of the initial guess is 1-A1.
 Requested convergence on RMS density matrix=1.00D-08 within 128 cycles.
 Requested convergence on MAX density matrix=1.00D-06.
 Requested convergence on             energy=1.00D-06.
 No special actions if energy rises.
 SCF Done:  E(RHF) =  -687.163625003     A.U. after    9 cycles
             Convg  =    0.6118D-08             -V/T =  2.0001
             S**2   =   0.0000
 Range of M.O.s used for correlation:     1   279
 NBasis=   279 NAE=    25 NBE=    25 NFC=     0 NFV=     0
 NROrb=    279 NOA=    25 NOB=    25 NVA=   254 NVB=   254

 **** Warning!!: The largest alpha MO coefficient is  0.70734490D+02

          Differentiating once with respect to electric field.
                with respect to dipole field.
          Electric field/nuclear overlap derivatives assumed to be zero.
 Integrals replicated using symmetry in FoFDir.
 MinBra= 0 MaxBra= 3 Meth= 1.
 IRaf=       0 NMat=   3 IRICut=       1 DoRegI=T DoRafI=F ISym2E= 2 JSym2E=2.
          There are   3 degrees of freedom in the 1st order CPHF.
     3 vectors were produced by pass  0.
 AX will form   3 AO Fock derivatives at one time.
     3 vectors were produced by pass  1.
     3 vectors were produced by pass  2.
     3 vectors were produced by pass  3.
     3 vectors were produced by pass  4.
     3 vectors were produced by pass  5.
     3 vectors were produced by pass  6.
     3 vectors were produced by pass  7.
     3 vectors were produced by pass  8.
     3 vectors were produced by pass  9.
 Inv2:  IOpt= 1 Iter= 1 AM= 4.08D-16 Conv= 1.00D-12.
 Inverted reduced A of dimension   30 with in-core refinement.
 End of Minotr Frequency-dependent properties file   721 does not exist.
 Symmetrizing basis deriv contribution to polar:
 IMax=3 JMax=2 DiffMx= 0.00D+00
 G2DrvN: will do    6 centers at a time, making    1 passes doing MaxLOS=3.
 FoFDir/FoFCou used for L=0 through L=3.
 DoAtom=TTTTT
          Differentiating once with respect to electric field.
                with respect to dipole field.
          Differentiating once with respect to nuclear coordinates.
 Integrals replicated using symmetry in FoFDir.
 MinBra= 0 MaxBra= 3 Meth= 1.
 IRaf=       0 NMat=   9 IRICut=       9 DoRegI=T DoRafI=T ISym2E= 2 JSym2E=2.
          There are   9 degrees of freedom in the 1st order CPHF.
     9 vectors were produced by pass  0.
 AX will form   9 AO Fock derivatives at one time.
     9 vectors were produced by pass  1.
     9 vectors were produced by pass  2.
     9 vectors were produced by pass  3.
     9 vectors were produced by pass  4.
     9 vectors were produced by pass  5.
     9 vectors were produced by pass  6.
     9 vectors were produced by pass  7.
     3 vectors were produced by pass  8.
 Inv2:  IOpt= 1 Iter= 1 AM= 1.29D-15 Conv= 1.00D-12.
 Inverted reduced A of dimension   75 with in-core refinement.
 Isotropic polarizability for W=    0.000000       18.89 Bohr**3.
 End of Minotr Frequency-dependent properties file   721 does not exist.

 **********************************************************************

            Population analysis using the SCF density.

 **********************************************************************

 Orbital symmetries:
       Occupied  (A1) (T2) (T2) (T2) (A1) (A1) (T2) (T2) (T2) (A1)
                 (T2) (T2) (T2) (A1) (T2) (T2) (T2) (E) (E) (T2)
                 (T2) (T2) (T1) (T1) (T1)
       Virtual   (A1) (T2) (T2) (T2) (A1) (T2) (T2) (T2) (E) (E)
                 (T2) (T2) (T2) (A1) (T2) (T2) (T2) (T1) (T1) (T1)
                 (A1) (T2) (T2) (T2) (E) (E) (T2) (T2) (T2) (T2)
                 (T2) (T2) (A1) (A1) (E) (E) (T2) (T2) (T2) (T1)
                 (T1) (T1) (T2) (T2) (T2) (A1) (T2) (T2) (T2) (E)
                 (E) (A1) (T1) (T1) (T1) (E) (E) (T2) (T2) (T2)
                 (T2) (T2) (T2) (T1) (T1) (T1) (A1) (T2) (T2) (T2)
                 (E) (E) (T2) (T2) (T2) (T2) (T2) (T2) (T1) (T1)
                 (T1) (A1) (T2) (T2) (T2) (T1) (T1) (T1) (A1) (E)
                 (E) (T2) (T2) (T2) (A1) (T2) (T2) (T2) (T2) (T2)
                 (T2) (T1) (T1) (T1) (E) (E) (T1) (T1) (T1) (T2)
                 (T2) (T2) (T2) (T2) (T2) (A2) (E) (E) (T2) (T2)
                 (T2) (T1) (T1) (T1) (T2) (T2) (T2) (A1) (E) (E)
                 (T1) (T1) (T1) (A1) (T2) (T2) (T2) (A1) (E) (E)
                 (T2) (T2) (T2) (T1) (T1) (T1) (T2) (T2) (T2) (A1)
                 (E) (E) (T1) (T1) (T1) (A1) (T2) (T2) (T2) (T2)
                 (T2) (T2) (T2) (T2) (T2) (A1) (T2) (T2) (T2) (A1)
                 (T2) (T2) (T2) (T1) (T1) (T1) (T2) (T2) (T2) (E)
                 (E) (T2) (T2) (T2) (A1) (E) (E) (A2) (T1) (T1)
                 (T1) (T2) (T2) (T2) (A1) (T1) (T1) (T1) (E) (E)
                 (T2) (T2) (T2) (T1) (T1) (T1) (E) (E) (T2) (T2)
                 (T2) (T1) (T1) (T1) (T2) (T2) (T2) (A1) (T2) (T2)
                 (T2) (E) (E) (T1) (T1) (T1) (T2) (T2) (T2) (A1)
                 (T2) (T2) (T2) (A1) (T2) (T2) (T2) (T1) (T1) (T1)
                 (T2) (T2) (T2) (E) (E) (T2) (T2) (T2) (A1) (A1)
                 (T2) (T2) (T2) (A1)
 The electronic state is 1-A1.
 Alpha  occ. eigenvalues --  -68.92681 -26.33651 -26.33651 -26.33651 -26.33649
 Alpha  occ. eigenvalues --   -6.26114  -4.37033  -4.37033  -4.37033  -1.67927
 Alpha  occ. eigenvalues --   -1.63989  -1.63989  -1.63989  -0.86215  -0.78575
 Alpha  occ. eigenvalues --   -0.78575  -0.78575  -0.73219  -0.73219  -0.71462
 Alpha  occ. eigenvalues --   -0.71462  -0.71462  -0.67947  -0.67947  -0.67947
 Alpha virt. eigenvalues --    0.03487   0.05212   0.05212   0.05212   0.13988
 Alpha virt. eigenvalues --    0.14265   0.14265   0.14265   0.16978   0.16978
 Alpha virt. eigenvalues --    0.19910   0.19910   0.19910   0.20827   0.24253
 Alpha virt. eigenvalues --    0.24253   0.24253   0.26833   0.26833   0.26833
 Alpha virt. eigenvalues --    0.31422   0.33072   0.33072   0.33072   0.36981
 Alpha virt. eigenvalues --    0.36981   0.40574   0.40574   0.40574   0.43981
 Alpha virt. eigenvalues --    0.43981   0.43981   0.49349   0.53109   0.57477
 Alpha virt. eigenvalues --    0.57477   0.58100   0.58100   0.58100   0.62223
 Alpha virt. eigenvalues --    0.62223   0.62223   0.64788   0.64788   0.64788
 Alpha virt. eigenvalues --    0.67357   0.93594   0.93594   0.93594   0.93827
 Alpha virt. eigenvalues --    0.93827   0.94205   0.97914   0.97914   0.97914
 Alpha virt. eigenvalues --    1.02698   1.02698   1.02992   1.02992   1.02992
 Alpha virt. eigenvalues --    1.11356   1.11356   1.11356   1.19181   1.19181
 Alpha virt. eigenvalues --    1.19181   1.25246   1.25517   1.25517   1.25517
 Alpha virt. eigenvalues --    1.28709   1.28709   1.33431   1.33431   1.33431
 Alpha virt. eigenvalues --    1.39466   1.39466   1.39466   1.40101   1.40101
 Alpha virt. eigenvalues --    1.40101   1.45631   1.51409   1.51409   1.51409
 Alpha virt. eigenvalues --    1.79501   1.79501   1.79501   1.80829   1.81894
 Alpha virt. eigenvalues --    1.81894   1.87464   1.87464   1.87464   1.88343
 Alpha virt. eigenvalues --    2.05553   2.05553   2.05553   2.20488   2.20488
 Alpha virt. eigenvalues --    2.20488   2.69644   2.69644   2.69644   2.72698
 Alpha virt. eigenvalues --    2.72698   2.82418   2.82418   2.82418   2.88631
 Alpha virt. eigenvalues --    2.88631   2.88631   2.90659   2.90659   2.90659
 Alpha virt. eigenvalues --    2.91735   2.92007   2.92007   2.96482   2.96482
 Alpha virt. eigenvalues --    2.96482   2.98079   2.98079   2.98079   3.04620
 Alpha virt. eigenvalues --    3.04620   3.04620   3.07016   3.09695   3.09695
 Alpha virt. eigenvalues --    3.13346   3.13346   3.13346   3.14510   3.23655
 Alpha virt. eigenvalues --    3.23655   3.23655   3.36691   3.38727   3.38727
 Alpha virt. eigenvalues --    3.49446   3.49446   3.49446   3.71019   3.71019
 Alpha virt. eigenvalues --    3.71019   3.72471   3.72471   3.72471   3.77148
 Alpha virt. eigenvalues --    3.82305   3.82305   3.85577   3.85577   3.85577
 Alpha virt. eigenvalues --    3.88799   4.04239   4.04239   4.04239   4.10007
 Alpha virt. eigenvalues --    4.10007   4.10007   4.35621   4.35621   4.35621
 Alpha virt. eigenvalues --    4.39601   5.43426   5.43426   5.43426   7.23712
 Alpha virt. eigenvalues --    7.30874   7.30874   7.30874   7.54364   7.54364
 Alpha virt. eigenvalues --    7.54364   7.64578   7.64578   7.64578   7.73382
 Alpha virt. eigenvalues --    7.73382   7.94552   7.94552   7.94552   8.58339
 Alpha virt. eigenvalues --    8.79405   8.79405   8.80149   8.83302   8.83302
 Alpha virt. eigenvalues --    8.83302   8.83325   8.83325   8.83325   8.92403
 Alpha virt. eigenvalues --    8.93496   8.93496   8.93496   9.11065   9.11065
 Alpha virt. eigenvalues --    9.12914   9.12914   9.12914   9.33513   9.33513
 Alpha virt. eigenvalues --    9.33513   9.33591   9.33591   9.37747   9.37747
 Alpha virt. eigenvalues --    9.37747   9.40775   9.40775   9.40775   9.41210
 Alpha virt. eigenvalues --    9.41210   9.41210   9.45276   9.46802   9.46802
 Alpha virt. eigenvalues --    9.46802   9.60125   9.60125   9.61404   9.61404
 Alpha virt. eigenvalues --    9.61404   9.70435   9.70435   9.70435   9.83861
 Alpha virt. eigenvalues --   10.12845  10.12845  10.12845  14.98275  15.65147
 Alpha virt. eigenvalues --   15.65147  15.65147  18.91234  18.91234  18.91234
 Alpha virt. eigenvalues --   19.27493  19.27493  19.27493  19.67226  19.67226
 Alpha virt. eigenvalues --   20.14068  20.14068  20.14068  21.24946  22.58042
 Alpha virt. eigenvalues --   23.97860  23.97860  23.97860  24.48347
          Condensed to atoms (all electrons):
              1          2          3          4          5
     1  Si  11.256459   0.316607   0.316607   0.316607   0.316607
     2  F    0.316607   9.066163  -0.004497  -0.004497  -0.004497
     3  F    0.316607  -0.004497   9.066163  -0.004497  -0.004497
     4  F    0.316607  -0.004497  -0.004497   9.066163  -0.004497
     5  F    0.316607  -0.004497  -0.004497  -0.004497   9.066163
 Mulliken atomic charges:
              1
     1  Si   1.477113
     2  F   -0.369278
     3  F   -0.369278
     4  F   -0.369278
     5  F   -0.369278
 Sum of Mulliken charges=   0.00000
 Atomic charges with hydrogens summed into heavy atoms:
              1
     1  Si   1.477113
     2  F   -0.369278
     3  F   -0.369278
     4  F   -0.369278
     5  F   -0.369278
 Sum of Mulliken charges=   0.00000
 APT atomic charges:
              1
     1  Si   2.595180
     2  F   -0.648795
     3  F   -0.648795
     4  F   -0.648795
     5  F   -0.648795
 Sum of APT charges=   0.00000
 APT Atomic charges with hydrogens summed into heavy atoms:
              1
     1  Si   2.595180
     2  F   -0.648795
     3  F   -0.648795
     4  F   -0.648795
     5  F   -0.648795
 Sum of APT charges=   0.00000
 Electronic spatial extent (au):  <R**2>=   379.2997
 Charge=     0.0000 electrons
 Dipole moment (field-independent basis, Debye):
    X=     0.0000    Y=     0.0000    Z=     0.0000  Tot=     0.0000
 Quadrupole moment (field-independent basis, Debye-Ang):
   XX=   -32.3466   YY=   -32.3466   ZZ=   -32.3466
   XY=     0.0000   XZ=     0.0000   YZ=     0.0000
 Traceless Quadrupole moment (field-independent basis, Debye-Ang):
   XX=     0.0000   YY=     0.0000   ZZ=     0.0000
   XY=     0.0000   XZ=     0.0000   YZ=     0.0000
 Octapole moment (field-independent basis, Debye-Ang**2):
  XXX=     0.0000  YYY=     0.0000  ZZZ=     0.0000  XYY=     0.0000
  XXY=     0.0000  XXZ=     0.0000  XZZ=     0.0000  YZZ=     0.0000
  YYZ=     0.0000  XYZ=    -4.7510
 Hexadecapole moment (field-independent basis, Debye-Ang**3):
 XXXX=  -118.8235 YYYY=  -118.8235 ZZZZ=  -118.8235 XXXY=     0.0000
 XXXZ=     0.0000 YYYX=     0.0000 YYYZ=     0.0000 ZZZX=     0.0000
 ZZZY=     0.0000 XXYY=   -41.6465 XXZZ=   -41.6465 YYZZ=   -41.6465
 XXYZ=     0.0000 YYXZ=     0.0000 ZZXY=     0.0000
 N-N= 2.744344118898D+02 E-N=-2.192045131960D+03  KE= 6.870689447562D+02
 Symmetry A    KE= 3.106613169236D+02
 Symmetry B1   KE= 1.254692092776D+02
 Symmetry B2   KE= 1.254692092776D+02
 Symmetry B3   KE= 1.254692092776D+02
  Exact polarizability:  18.891   0.000  18.891   0.000   0.000  18.891
 Approx polarizability:  16.274   0.000  16.274   0.000   0.000  16.274
 Full mass-weighted force constant matrix:
 Low frequencies ---   -0.7754   -0.7754   -0.7754   -0.0020   -0.0010    0.0009
 Low frequencies ---  276.6532  276.6532  409.3729
 Diagonal vibrational polarizability:
       15.5291496      15.5291496      15.5291496
 Diagonal vibrational hyperpolarizability:
        0.0000001       0.0000001       0.0000001
 Harmonic frequencies (cm**-1), IR intensities (KM/Mole), Raman scattering
 activities (A**4/AMU), depolarization ratios for plane and unpolarized
 incident light, reduced masses (AMU), force constants (mDyne/A),
 and normal coordinates:
                           1         2         3         4         5
                           E         E        T2        T2        T2
       Frequencies ---   276.6532  276.6532  409.3729  409.3729  409.3729
    Reduced masses ---    18.9984   18.9984   20.4576   20.4576   20.4576
   Force constants ---     0.8567    0.8567    2.0200    2.0200    2.0200
    IR Intensities ---     0.0000    0.0000   58.9650   58.9650   58.9650
  Raman Activities ---     0.1693    0.1693    0.2115    0.2115    0.2115
    Depol. (Plane) ---     0.7500    0.7500    0.7500    0.7500    0.7500
    Depol. (Unpol) ---     0.8571    0.8571    0.8571    0.8571    0.8571
 Coord Atom Element:
   1     1    14          0.00000   0.00000   0.23326  -0.29982  -0.13495
   2     1    14          0.00000   0.00000   0.23202   0.26734  -0.19291
   3     1    14          0.00000   0.00000   0.23297   0.03396   0.32724
   1     2     9         -0.32998  -0.24038   0.26714   0.33912   0.15167
   2     2     9         -0.04318   0.40596   0.26855  -0.30027   0.21701
   3     2     9          0.37316  -0.16558   0.26747  -0.03716  -0.36939
   1     3     9          0.32998   0.24038  -0.08660   0.28756  -0.34522
   2     3     9          0.04318  -0.40596  -0.08519  -0.35183  -0.27988
   3     3     9          0.37316  -0.16558  -0.43901   0.01216   0.12844
   1     4     9          0.32998   0.24038  -0.08515  -0.06680   0.44459
   2     4     9         -0.04318   0.40596  -0.43938   0.10343  -0.07497
   3     4     9         -0.37316   0.16558  -0.08482  -0.44309  -0.07647
   1     5     9         -0.32998  -0.24038  -0.43889  -0.11836  -0.05230
   2     5     9          0.04318  -0.40596  -0.08564   0.15499   0.42192
   3     5     9         -0.37316   0.16558  -0.08671   0.41809  -0.16448
                           6         7         8         9
                          A1        T2        T2        T2
       Frequencies ---   850.0192 1093.0994 1093.0994 1093.0994
    Reduced masses ---    18.9984   22.7048   22.7048   22.7048
   Force constants ---     8.0877   15.9841   15.9841   15.9841
    IR Intensities ---     0.0000  269.0872  269.0872  269.0872
  Raman Activities ---     5.1628    0.3644    0.3644    0.3644
    Depol. (Plane) ---     0.0000    0.7500    0.7500    0.7500
    Depol. (Unpol) ---     0.0000    0.8571    0.8571    0.8571
 Coord Atom Element:
   1     1    14          0.00000  -0.44692  -0.27648   0.36964
   2     1    14          0.00000  -0.01446   0.52264   0.37343
   3     1    14          0.00000   0.46137  -0.25143   0.36976
   1     2     9         -0.28868   0.01628   0.01182  -0.38261
   2     2     9         -0.28868   0.00053  -0.01729  -0.38275
   3     2     9         -0.28868  -0.01681   0.01091  -0.38262
   1     3     9          0.28868   0.32238  -0.15499  -0.13730
   2     3     9          0.28868   0.30662  -0.18410  -0.13744
   3     3     9         -0.28868  -0.32290   0.17422   0.11036
   1     4     9          0.28868   0.00669   0.35856  -0.13487
   2     4     9         -0.28868   0.01012  -0.36753   0.10779
   3     4     9          0.28868  -0.02640   0.35765  -0.13487
   1     5     9         -0.28868   0.31278   0.19175   0.11045
   2     5     9          0.28868  -0.29597  -0.20072  -0.13752
   3     5     9          0.28868  -0.31331  -0.17252  -0.13739
 Harmonic frequencies (cm**-1), IR intensities (KM/Mole), Raman scattering
 activities (A**4/AMU), depolarization ratios for plane and unpolarized
 incident light, reduced masses (AMU), force constants (mDyne/A),
 and normal coordinates:
                     1                      2                      3
                     E                      E                     T2
 Frequencies --   276.6532               276.6532               409.3729
 Red. masses --    18.9984                18.9984                20.4576
 Frc consts  --     0.8567                 0.8567                 2.0200
 IR Inten    --     0.0000                 0.0000                58.9650
 Raman Activ --     0.1693                 0.1693                 0.2115
 Depolar (P) --     0.7500                 0.7500                 0.7500
 Depolar (U) --     0.8571                 0.8571                 0.8571
 Atom AN      X      Y      Z        X      Y      Z        X      Y      Z
   1  14     0.00   0.00   0.00     0.00   0.00   0.00     0.23   0.23   0.23
   2   9    -0.33  -0.04   0.37    -0.24   0.41  -0.17     0.27   0.27   0.27
   3   9     0.33   0.04   0.37     0.24  -0.41  -0.17    -0.09  -0.09  -0.44
   4   9     0.33  -0.04  -0.37     0.24   0.41   0.17    -0.09  -0.44  -0.08
   5   9    -0.33   0.04  -0.37    -0.24  -0.41   0.17    -0.44  -0.09  -0.09
                     4                      5                      6
                    T2                     T2                     A1
 Frequencies --   409.3729               409.3729               850.0192
 Red. masses --    20.4576                20.4576                18.9984
 Frc consts  --     2.0200                 2.0200                 8.0877
 IR Inten    --    58.9650                58.9650                 0.0000
 Raman Activ --     0.2115                 0.2115                 5.1628
 Depolar (P) --     0.7500                 0.7500                 0.0000
 Depolar (U) --     0.8571                 0.8571                 0.0000
 Atom AN      X      Y      Z        X      Y      Z        X      Y      Z
   1  14    -0.30   0.27   0.03    -0.13  -0.19   0.33     0.00   0.00   0.00
   2   9     0.34  -0.30  -0.04     0.15   0.22  -0.37    -0.29  -0.29  -0.29
   3   9     0.29  -0.35   0.01    -0.35  -0.28   0.13     0.29   0.29  -0.29
   4   9    -0.07   0.10  -0.44     0.44  -0.07  -0.08     0.29  -0.29   0.29
   5   9    -0.12   0.15   0.42    -0.05   0.42  -0.16    -0.29   0.29   0.29
                     7                      8                      9
                    T2                     T2                     T2
 Frequencies --  1093.0994              1093.0994              1093.0994
 Red. masses --    22.7048                22.7048                22.7048
 Frc consts  --    15.9841                15.9841                15.9841
 IR Inten    --   269.0872               269.0872               269.0872
 Raman Activ --     0.3644                 0.3644                 0.3644
 Depolar (P) --     0.7500                 0.7500                 0.7500
 Depolar (U) --     0.8571                 0.8571                 0.8571
 Atom AN      X      Y      Z        X      Y      Z        X      Y      Z
   1  14    -0.45  -0.01   0.46    -0.28   0.52  -0.25     0.37   0.37   0.37
   2   9     0.02   0.00  -0.02     0.01  -0.02   0.01    -0.38  -0.38  -0.38
   3   9     0.32   0.31  -0.32    -0.15  -0.18   0.17    -0.14  -0.14   0.11
   4   9     0.01   0.01  -0.03     0.36  -0.37   0.36    -0.13   0.11  -0.13
   5   9     0.31  -0.30  -0.31     0.19  -0.20  -0.17     0.11  -0.14  -0.14

 -------------------
 - Thermochemistry -
 -------------------
 Temperature   298.150 Kelvin.  Pressure   1.00000 Atm.
 Atom  1 has atomic number 14 and mass  27.97693
 Atom  2 has atomic number  9 and mass  18.99840
 Atom  3 has atomic number  9 and mass  18.99840
 Atom  4 has atomic number  9 and mass  18.99840
 Atom  5 has atomic number  9 and mass  18.99840
 Molecular mass:   103.97054 amu.
 Principal axes and moments of inertia in atomic units:
                           1         2         3
     EIGENVALUES --   432.25319 432.25319 432.25319
           X            0.80000   0.54328   0.25466
           Y           -0.60000   0.72437   0.33955
           Z            0.00000  -0.42443   0.90546
 This molecule is a spherical top.
 Rotational symmetry number 12.
 Rotational temperatures (Kelvin)      0.20038     0.20038     0.20038
 Rotational constants (GHZ):           4.17519     4.17519     4.17519
 Zero-point vibrational energy      35354.1 (Joules/Mol)
                                    8.44983 (Kcal/Mol)
 Warning -- explicit consideration of   5 degrees of freedom as
           vibrations may cause significant error
 Vibrational temperatures:    398.04   398.04   589.00   589.00   589.00
          (Kelvin)           1222.99  1572.72  1572.72  1572.72
 
 Zero-point correction=                           0.013466 (Hartree/Particle)
 Thermal correction to Energy=                    0.018242
 Thermal correction to Enthalpy=                  0.019186
 Thermal correction to Gibbs Free Energy=        -0.012671
 Sum of electronic and zero-point Energies=           -687.150159
 Sum of electronic and thermal Energies=              -687.145383
 Sum of electronic and thermal Enthalpies=            -687.144439
 Sum of electronic and thermal Free Energies=         -687.176296
 
                     E (Thermal)             CV                S
                      KCal/Mol        Cal/Mol-Kelvin    Cal/Mol-Kelvin
 Total                   11.447             15.174             67.047
 Electronic               0.000              0.000              0.000
 Translational            0.889              2.981             39.834
 Rotational               0.889              2.981             20.955
 Vibrational              9.669              9.212              6.258
 Vibration  1             0.678              1.717              1.554
 Vibration  2             0.678              1.717              1.554
 Vibration  3             0.774              1.450              0.929
 Vibration  4             0.774              1.450              0.929
 Vibration  5             0.774              1.450              0.929
                       Q            Log10(Q)             Ln(Q)
 Total Bot       0.673015D+06          5.828025         13.419523
 Total V=0       0.105144D+13         12.021786         27.681186
 Vib (Bot)       0.190516D-05         -5.720068        -13.170944
 Vib (Bot)  1    0.696177D+00         -0.157280         -0.362151
 Vib (Bot)  2    0.696177D+00         -0.157280         -0.362151
 Vib (Bot)  3    0.432381D+00         -0.364133         -0.838448
 Vib (Bot)  4    0.432381D+00         -0.364133         -0.838448
 Vib (Bot)  5    0.432381D+00         -0.364133         -0.838448
 Vib (V=0)       0.297641D+01          0.473693          1.090719
 Vib (V=0)  1    0.135712D+01          0.132620          0.305368
 Vib (V=0)  2    0.135712D+01          0.132620          0.305368
 Vib (V=0)  3    0.116102D+01          0.064841          0.149303
 Vib (V=0)  4    0.116102D+01          0.064841          0.149303
 Vib (V=0)  5    0.116102D+01          0.064841          0.149303
 Electronic      0.100000D+01          0.000000          0.000000
 Translational   0.416697D+08          7.619821         17.545285
 Rotational      0.847759D+04          3.928272          9.045182
 ***** Axes restored to original set *****
 -------------------------------------------------------------------
 Center     Atomic                   Forces (Hartrees/Bohr)
 Number     Number              X              Y              Z
 -------------------------------------------------------------------
    1         14           0.000000000    0.000000000    0.000000000
    2          9           0.000000000    0.000000000    0.000001311
    3          9           0.000001236    0.000000000   -0.000000437
    4          9          -0.000000618   -0.000001071   -0.000000437
    5          9          -0.000000618    0.000001071   -0.000000437
 -------------------------------------------------------------------
 Cartesian Forces:  Max     0.000001311 RMS     0.000000677
 ------------------------------------------------------------------------
           Internal Coordinate Forces (Hartree/Bohr or radian)
 Cent Atom N1     Length/X     N2     Alpha/Y      N3      Beta/Z       J
 ------------------------------------------------------------------------
   1  Si
   2  F     1   0.000001(   1)
   3  F     1   0.000001(   2)  2   0.000000(   5)
   4  F     1   0.000001(   3)  2   0.000000(   6)  3   0.000000(   8)  0
   5  F     1   0.000001(   4)  2   0.000000(   7)  3   0.000000(   9)  0
 ------------------------------------------------------------------------
 Internal  Forces:  Max     0.000001311 RMS     0.000000874

 GradGradGradGradGradGradGradGradGradGradGradGradGradGradGradGradGradGrad
 Berny optimization.
 Search for a local minimum.
 Step number   1 out of a maximum of   2
 All quantities printed in internal units (Hartrees-Bohrs-Radians)
 Second derivative matrix not updated -- analytic derivatives used.
 The second derivative matrix:
                           R         T
           R            2.07791
           T            0.00000   1.60438
     Eigenvalues ---    1.60438   2.07791
 Angle between quadratic step and forces=   0.00 degrees.
 Linear search not attempted -- first point.
 Variable       Old X    -DE/DX   Delta X   Delta X   Delta X     New X
                                 (Linear)    (Quad)   (Total)
    R         2.92096   0.00001   0.00000   0.00000   0.00000   2.92097
    T         1.91063   0.00000   0.00000   0.00000   0.00000   1.91063
         Item               Value     Threshold  Converged?
 Maximum Force            0.000005     0.000450     YES
 RMS     Force            0.000004     0.000300     YES
 Maximum Displacement     0.000003     0.001800     YES
 RMS     Displacement     0.000002     0.001200     YES
 Predicted change in Energy=-6.621738D-12
 Optimization completed.
    -- Stationary point found.
                       ----------------------------
                       !   Optimized Parameters   !
                       ! (Angstroms and Degrees)  !
 ----------------------                            ----------------------
 !      Name          Value   Derivative information (Atomic Units)     !
 ------------------------------------------------------------------------
 !        R          1.5457   -DE/DX =    0.0                           !
 !        T        109.4712   -DE/DX =    0.0                           !
 ------------------------------------------------------------------------
 GradGradGradGradGradGradGradGradGradGradGradGradGradGradGradGradGradGrad

 1\1\GINC-TITAN\Freq\RHF\Aug-CC-pVTZ\F4Si1\RRL581A\02-Nov-2005\1\\# HF/
 AUG-CC-PVTZ SCF=TIGHT 6D 10F GFINPUT PUNCH=MO FREQ=HPMODES\\SiF4\\0,1\
 Si\F,1,R\F,1,R,2,T\F,1,R,2,T,3,120.,0\F,1,R,2,T,3,-120.,0\\R=1.5457075
 1\T=109.47122063\\Version=SGI64-G03RevC.02\State=1-A1\HF=-687.163625\R
 MSD=6.118e-09\RMSF=6.772e-07\Dipole=0.,0.,0.\DipoleDeriv=2.5951797,0.,
 0.,0.,2.5951797,0.,0.,0.,2.5951797,-0.5185134,0.,0.,0.,-0.5185134,0.,0
 .,0.,-0.9093579,-0.8659308,0.,0.1228306,0.,-0.5185134,0.,0.1228306,0.,
 -0.5619406,-0.6053678,-0.1504361,-0.0614153,-0.1504361,-0.7790764,-0.1
 063744,-0.0614153,-0.1063744,-0.5619406,-0.6053678,0.1504361,-0.061415
 3,0.1504361,-0.7790764,0.1063744,-0.0614153,0.1063744,-0.5619406\Polar
 =18.8908031,0.,18.8908031,0.,0.,18.8908031\PolarDeriv=-0.7192849,0.,0.
 7192849,0.5086112,0.,0.,0.,0.7192849,0.,0.,0.5086112,0.,0.5086113,0.,0
 .5086113,0.,0.,-1.0172225,-0.1194168,0.,0.1194168,0.9401616,0.,0.,0.,0
 .1194168,0.,0.,0.9401616,0.,1.5152753,0.,1.5152753,0.,0.,4.8777352,4.4
 390864,0.,1.4684208,-0.7650484,0.,1.5484961,0.,0.9261985,0.,0.,-0.2008
 ,0.,-0.9567531,0.,-0.3925046,1.0062737,0.,-1.2868376,-1.8001925,-1.044
 2237,-1.1535612,-0.3418621,-0.2443267,-0.774248,-1.513802,-0.88245,-3.
 6022493,-0.2443267,-0.6239863,-1.3410369,-0.5335667,-0.2443268,-0.8156
 909,-0.5031368,-0.8714586,-1.2868376,-1.8001925,1.0442237,-1.1535612,-
 0.3418621,0.2443267,-0.774248,1.513802,-0.88245,3.6022493,0.2443267,-0
 .6239863,1.3410369,-0.5335667,0.2443268,-0.8156909,-0.5031368,0.871458
 6,-1.2868376\HyperPolar=-0.1561059,0.,0.1561059,0.,0.1103825,0.,0.1103
 825,0.,0.,-0.2207673\PG=TD [O(Si1),4C3(F1)]\NImag=0\\0.68292502,0.,0.6
 8292502,0.,0.,0.68292502,-0.04610852,0.,0.,0.03726186,0.,-0.04610852,0
 .,0.,0.03726186,0.,0.,-0.41997672,0.,0.,0.46970949,-0.37843581,0.,0.11
 749544,-0.00385054,0.,0.01173429,0.42165975,0.,-0.04610852,0.,0.,0.009
 74832,0.,0.,0.03726186,0.11749544,0.,-0.08764943,0.02426324,0.,-0.0165
 7759,-0.13590518,0.,0.08531159,-0.12919034,-0.14390194,-0.05874772,0.0
 0634860,-0.00588848,-0.00586715,-0.01968670,-0.02177368,-0.00292675,0.
 13336133,-0.14390194,-0.29535399,-0.10175404,-0.00588848,-0.00045083,-
 0.01016219,-0.01154383,-0.00045083,-0.00216431,0.16644917,0.32556028,-
 0.05874772,-0.10175403,-0.08764943,-0.01213162,-0.02101258,-0.01657759
 ,0.00333773,0.00145248,0.00945771,0.06795259,0.11769734,0.08531159,-0.
 12919034,0.14390194,-0.05874772,0.00634860,0.00588848,-0.00586715,-0.0
 1968670,0.02177368,-0.00292675,0.00916711,-0.00511492,-0.00041098,0.13
 336133,0.14390194,-0.29535399,0.10175404,0.00588848,-0.00045083,0.0101
 6219,0.01154383,-0.00045083,0.00216431,0.00511492,-0.02930464,0.003616
 80,-0.16644917,0.32556028,-0.05874772,0.10175403,-0.08764943,-0.012131
 62,0.02101258,-0.01657759,0.00333773,-0.00145248,0.00945771,-0.0004109
 8,-0.00361680,0.00945771,0.06795259,-0.11769734,0.08531159\\0.,0.,0.,0
 .,0.,-0.00000131,-0.00000124,0.,0.00000044,0.00000062,0.00000107,0.000
 00044,0.00000062,-0.00000107,0.00000044\\\@


 I SUPPOSE A BABY LLAMA HAS A MMAMA AND A PPOPA.
     -- RICHARD AMOUR
 Job cpu time:  0 days  1 hours 37 minutes 40.1 seconds.
 File lengths (MBytes):  RWF=     69 Int=      0 D2E=      0 Chk=     14 Scr=      1
 Normal termination of Gaussian 03 at Wed Nov  2 18:39:26 2005.
(5D15.8)
    1 Alpha MO OE=-0.68926812D+02
 0.99853306D+00 0.50561579D-02-0.36216506D-02-0.37979270D-03-0.14631826D-02
 0.00000000D+00 0.00000000D+00 0.00000000D+00 0.00000000D+00 0.00000000D+00
 0.00000000D+00 0.00000000D+00 0.00000000D+00 0.00000000D+00 0.00000000D+00
 0.00000000D+00 0.00000000D+00 0.35428062D-03 0.35428062D-03 0.35428062D-03
 0.00000000D+00 0.00000000D+00 0.00000000D+00 0.83502638D-03 0.83502638D-03
 0.83502638D-03 0.00000000D+00 0.00000000D+00 0.00000000D+00 0.00000000D+00
 0.00000000D+00 0.00000000D+00 0.00000000D+00 0.00000000D+00 0.00000000D+00
 0.00000000D+00 0.00000000D+00 0.00000000D+00-0.17317135D-03-0.62288845D-04
 0.00000000D+00 0.00000000D+00 0.00000000D+00 0.48870554D-04 0.48870554D-04
 0.48870554D-04 0.00000000D+00 0.00000000D+00 0.00000000D+00 0.00000000D+00
 0.00000000D+00 0.00000000D+00 0.00000000D+00 0.00000000D+00 0.00000000D+00
 0.00000000D+00 0.00000000D+00 0.00000000D+00-0.59221407D-04 0.19008979D-05
 0.19307543D-04-0.11554456D-05 0.39916691D-03 0.28952909D-05 0.28952909D-05
 0.28952909D-05 0.10475344D-04 0.10475344D-04 0.10475344D-04-0.26938652D-03
-0.26938652D-03-0.26938652D-03-0.51740524D-05-0.51740524D-05-0.51740524D-05
-0.16555746D-05-0.16555746D-05-0.16555746D-05-0.38673713D-05-0.38673713D-05
-0.38673713D-05 0.37242549D-05 0.37242549D-05 0.37242549D-05 0.29650438D-06
 0.29650438D-06 0.29650438D-06-0.53963644D-06-0.53963644D-06-0.53963644D-06
-0.53963644D-06-0.53963644D-06-0.53963644D-06-0.22663319D-05 0.18015364D-03
-0.20892643D-04-0.20892643D-04-0.20892643D-04 0.10635432D-03 0.10635432D-03
 0.10635432D-03 0.72304050D-04 0.72304050D-04 0.72304050D-04 0.11661837D-04
 0.11661837D-04 0.11661837D-04 0.37729896D-06 0.37729896D-06 0.37729896D-06
 0.37729896D-06 0.37729896D-06 0.37729896D-06-0.46729329D-05 0.19008979D-05
 0.19307543D-04-0.11554456D-05 0.39916691D-03-0.28952909D-05-0.28952909D-05
 0.28952909D-05-0.10475344D-04-0.10475344D-04 0.10475344D-04 0.26938652D-03
 0.26938652D-03-0.26938652D-03-0.51740524D-05-0.51740524D-05-0.51740524D-05
-0.16555746D-05 0.16555746D-05 0.16555746D-05-0.38673713D-05-0.38673713D-05
-0.38673713D-05 0.37242549D-05-0.37242549D-05-0.37242549D-05-0.29650438D-06
-0.29650438D-06 0.29650438D-06 0.53963644D-06 0.53963644D-06-0.53963644D-06
 0.53963644D-06 0.53963644D-06-0.53963644D-06-0.22663319D-05 0.18015364D-03
 0.20892643D-04 0.20892643D-04-0.20892643D-04 0.10635432D-03 0.10635432D-03
 0.10635432D-03 0.72304050D-04-0.72304050D-04-0.72304050D-04-0.11661837D-04
-0.11661837D-04 0.11661837D-04-0.37729896D-06-0.37729896D-06 0.37729896D-06
-0.37729896D-06-0.37729896D-06 0.37729896D-06-0.46729329D-05 0.19008979D-05
 0.19307543D-04-0.11554456D-05 0.39916691D-03-0.28952909D-05 0.28952909D-05
-0.28952909D-05-0.10475344D-04 0.10475344D-04-0.10475344D-04 0.26938652D-03
-0.26938652D-03 0.26938652D-03-0.51740524D-05-0.51740524D-05-0.51740524D-05
 0.16555746D-05-0.16555746D-05 0.16555746D-05-0.38673713D-05-0.38673713D-05
-0.38673713D-05-0.37242549D-05 0.37242549D-05-0.37242549D-05-0.29650438D-06
 0.29650438D-06-0.29650438D-06 0.53963644D-06-0.53963644D-06 0.53963644D-06
 0.53963644D-06-0.53963644D-06 0.53963644D-06-0.22663319D-05 0.18015364D-03
 0.20892643D-04-0.20892643D-04 0.20892643D-04 0.10635432D-03 0.10635432D-03
 0.10635432D-03-0.72304050D-04 0.72304050D-04-0.72304050D-04-0.11661837D-04
 0.11661837D-04-0.11661837D-04-0.37729896D-06 0.37729896D-06-0.37729896D-06
-0.37729896D-06 0.37729896D-06-0.37729896D-06-0.46729329D-05 0.19008979D-05
 0.19307543D-04-0.11554456D-05 0.39916691D-03 0.28952909D-05-0.28952909D-05
-0.28952909D-05 0.10475344D-04-0.10475344D-04-0.10475344D-04-0.26938652D-03
 0.26938652D-03 0.26938652D-03-0.51740524D-05-0.51740524D-05-0.51740524D-05
 0.16555746D-05 0.16555746D-05-0.16555746D-05-0.38673713D-05-0.38673713D-05
-0.38673713D-05-0.37242549D-05-0.37242549D-05 0.37242549D-05 0.29650438D-06
-0.29650438D-06-0.29650438D-06-0.53963644D-06 0.53963644D-06 0.53963644D-06
-0.53963644D-06 0.53963644D-06 0.53963644D-06-0.22663319D-05 0.18015364D-03
-0.20892643D-04 0.20892643D-04 0.20892643D-04 0.10635432D-03 0.10635432D-03
 0.10635432D-03-0.72304050D-04-0.72304050D-04 0.72304050D-04 0.11661837D-04
-0.11661837D-04-0.11661837D-04 0.37729896D-06-0.37729896D-06-0.37729896D-06
 0.37729896D-06-0.37729896D-06-0.37729896D-06-0.46729329D-05
    2 Alpha MO OE=-0.26336509D+02
 0.00000000D+00 0.00000000D+00 0.00000000D+00 0.00000000D+00 0.00000000D+00
 0.00000000D+00-0.44579923D-05 0.00000000D+00 0.00000000D+00-0.28676726D-03
 0.00000000D+00 0.00000000D+00-0.26489562D-03 0.00000000D+00 0.00000000D+00
 0.13919950D-01 0.00000000D+00 0.00000000D+00 0.00000000D+00 0.00000000D+00
 0.00000000D+00-0.35622827D-03 0.00000000D+00 0.00000000D+00 0.00000000D+00
 0.00000000D+00 0.00000000D+00-0.33915125D-04 0.00000000D+00 0.00000000D+00
-0.63643706D-03 0.00000000D+00 0.00000000D+00-0.61453331D-03 0.00000000D+00
 0.00000000D+00-0.61453331D-03 0.00000000D+00 0.00000000D+00 0.00000000D+00
 0.00000000D+00-0.89343644D-04 0.00000000D+00 0.00000000D+00 0.00000000D+00
 0.00000000D+00 0.00000000D+00 0.59644230D-03 0.00000000D+00 0.00000000D+00
-0.41248563D-02 0.00000000D+00 0.00000000D+00-0.22452018D-02 0.00000000D+00
 0.00000000D+00-0.22452018D-02 0.00000000D+00 0.00000000D+00 0.48810301D+00
-0.84247430D-02 0.25195584D-01-0.10595062D-01-0.48798662D-03-0.47305168D-03
-0.48798662D-03 0.10034305D-02 0.94442951D-03 0.10034305D-02 0.91219852D-03
 0.47992185D-03 0.91219852D-03 0.14693412D-02 0.14646347D-02 0.14693412D-02
-0.75690051D-05-0.39007844D-05-0.75690051D-05 0.47583656D-02 0.47779121D-02
 0.47583656D-02 0.47022123D-04 0.31189715D-04 0.47022123D-04-0.39979538D-03
-0.36751870D-03-0.39979538D-03-0.18558889D-03-0.17086266D-03-0.19167680D-03
-0.19167680D-03-0.17086266D-03-0.18558889D-03-0.68298290D-05-0.57786530D-02
 0.59083328D-03 0.99350874D-04 0.59083328D-03 0.22598392D-02 0.24173860D-02
 0.22598392D-02-0.68293386D-04-0.24967453D-03-0.68293386D-04-0.54754352D-03
-0.49272437D-03-0.54754352D-03-0.25005718D-03-0.21392201D-03-0.20128365D-03
-0.20128365D-03-0.21392201D-03-0.25005718D-03 0.36145121D-05-0.48810301D+00
 0.84247430D-02-0.25195584D-01 0.10595062D-01-0.48798662D-03-0.47305168D-03
 0.48798662D-03 0.10034305D-02 0.94442951D-03-0.10034305D-02 0.91219852D-03
 0.47992185D-03-0.91219852D-03-0.14693412D-02-0.14646347D-02-0.14693412D-02
 0.75690051D-05-0.39007844D-05-0.75690051D-05-0.47583656D-02-0.47779121D-02
-0.47583656D-02-0.47022123D-04 0.31189715D-04 0.47022123D-04-0.39979538D-03
-0.36751870D-03 0.39979538D-03-0.18558889D-03-0.17086266D-03 0.19167680D-03
-0.19167680D-03-0.17086266D-03 0.18558889D-03 0.68298290D-05 0.57786530D-02
 0.59083328D-03 0.99350874D-04-0.59083328D-03-0.22598392D-02-0.24173860D-02
-0.22598392D-02 0.68293386D-04-0.24967453D-03-0.68293386D-04-0.54754352D-03
-0.49272437D-03 0.54754352D-03-0.25005718D-03-0.21392201D-03 0.20128365D-03
-0.20128365D-03-0.21392201D-03 0.25005718D-03-0.36145121D-05 0.48810301D+00
-0.84247430D-02 0.25195584D-01-0.10595062D-01 0.48798662D-03-0.47305168D-03
 0.48798662D-03-0.10034305D-02 0.94442951D-03-0.10034305D-02-0.91219852D-03
 0.47992185D-03-0.91219852D-03 0.14693412D-02 0.14646347D-02 0.14693412D-02
 0.75690051D-05-0.39007844D-05 0.75690051D-05 0.47583656D-02 0.47779121D-02
 0.47583656D-02-0.47022123D-04 0.31189715D-04-0.47022123D-04 0.39979538D-03
-0.36751870D-03 0.39979538D-03 0.18558889D-03-0.17086266D-03 0.19167680D-03
 0.19167680D-03-0.17086266D-03 0.18558889D-03-0.68298290D-05-0.57786530D-02
-0.59083328D-03 0.99350874D-04-0.59083328D-03 0.22598392D-02 0.24173860D-02
 0.22598392D-02 0.68293386D-04-0.24967453D-03 0.68293386D-04 0.54754352D-03
-0.49272437D-03 0.54754352D-03 0.25005718D-03-0.21392201D-03 0.20128365D-03
 0.20128365D-03-0.21392201D-03 0.25005718D-03 0.36145121D-05-0.48810301D+00
 0.84247430D-02-0.25195584D-01 0.10595062D-01 0.48798662D-03-0.47305168D-03
-0.48798662D-03-0.10034305D-02 0.94442951D-03 0.10034305D-02-0.91219852D-03
 0.47992185D-03 0.91219852D-03-0.14693412D-02-0.14646347D-02-0.14693412D-02
-0.75690051D-05-0.39007844D-05 0.75690051D-05-0.47583656D-02-0.47779121D-02
-0.47583656D-02 0.47022123D-04 0.31189715D-04-0.47022123D-04 0.39979538D-03
-0.36751870D-03-0.39979538D-03 0.18558889D-03-0.17086266D-03-0.19167680D-03
 0.19167680D-03-0.17086266D-03-0.18558889D-03 0.68298290D-05 0.57786530D-02
-0.59083328D-03 0.99350874D-04 0.59083328D-03-0.22598392D-02-0.24173860D-02
-0.22598392D-02-0.68293386D-04-0.24967453D-03 0.68293386D-04 0.54754352D-03
-0.49272437D-03-0.54754352D-03 0.25005718D-03-0.21392201D-03-0.20128365D-03
 0.20128365D-03-0.21392201D-03-0.25005718D-03-0.36145121D-05
    3 Alpha MO OE=-0.26336509D+02
 0.00000000D+00 0.00000000D+00 0.00000000D+00 0.00000000D+00 0.00000000D+00
 0.00000000D+00 0.00000000D+00-0.44579923D-05 0.00000000D+00 0.00000000D+00
-0.28676726D-03 0.00000000D+00 0.00000000D+00-0.26489562D-03 0.00000000D+00
 0.00000000D+00 0.13919950D-01 0.00000000D+00 0.00000000D+00 0.00000000D+00
-0.35622827D-03 0.00000000D+00 0.00000000D+00 0.00000000D+00 0.00000000D+00
 0.00000000D+00-0.33915125D-04 0.00000000D+00 0.00000000D+00 0.00000000D+00
 0.00000000D+00-0.63643706D-03 0.00000000D+00 0.00000000D+00-0.61453331D-03
 0.00000000D+00 0.00000000D+00-0.61453331D-03 0.00000000D+00 0.00000000D+00
 0.00000000D+00 0.00000000D+00-0.89343644D-04 0.00000000D+00 0.00000000D+00
 0.00000000D+00 0.59644230D-03 0.00000000D+00 0.00000000D+00 0.00000000D+00
 0.00000000D+00-0.41248563D-02 0.00000000D+00 0.00000000D+00-0.22452018D-02
 0.00000000D+00 0.00000000D+00-0.22452018D-02 0.00000000D+00 0.48810301D+00
-0.84247430D-02 0.25195584D-01-0.10595062D-01-0.48798662D-03-0.48798662D-03
-0.47305168D-03 0.10034305D-02 0.10034305D-02 0.94442951D-03 0.91219852D-03
 0.91219852D-03 0.47992185D-03 0.14693412D-02 0.14693412D-02 0.14646347D-02
-0.39007844D-05-0.75690051D-05-0.75690051D-05 0.47583656D-02 0.47583656D-02
 0.47779121D-02 0.31189715D-04 0.47022123D-04 0.47022123D-04-0.39979538D-03
-0.39979538D-03-0.36751870D-03-0.19167680D-03-0.19167680D-03-0.17086266D-03
-0.18558889D-03-0.18558889D-03-0.17086266D-03-0.68298290D-05-0.57786530D-02
 0.59083328D-03 0.59083328D-03 0.99350874D-04 0.22598392D-02 0.22598392D-02
 0.24173860D-02-0.24967453D-03-0.68293386D-04-0.68293386D-04-0.54754352D-03
-0.54754352D-03-0.49272437D-03-0.20128365D-03-0.20128365D-03-0.21392201D-03
-0.25005718D-03-0.25005718D-03-0.21392201D-03 0.36145121D-05 0.48810301D+00
-0.84247430D-02 0.25195584D-01-0.10595062D-01 0.48798662D-03 0.48798662D-03
-0.47305168D-03-0.10034305D-02-0.10034305D-02 0.94442951D-03-0.91219852D-03
-0.91219852D-03 0.47992185D-03 0.14693412D-02 0.14693412D-02 0.14646347D-02
-0.39007844D-05 0.75690051D-05 0.75690051D-05 0.47583656D-02 0.47583656D-02
 0.47779121D-02 0.31189715D-04-0.47022123D-04-0.47022123D-04 0.39979538D-03
 0.39979538D-03-0.36751870D-03 0.19167680D-03 0.19167680D-03-0.17086266D-03
 0.18558889D-03 0.18558889D-03-0.17086266D-03-0.68298290D-05-0.57786530D-02
-0.59083328D-03-0.59083328D-03 0.99350874D-04 0.22598392D-02 0.22598392D-02
 0.24173860D-02-0.24967453D-03 0.68293386D-04 0.68293386D-04 0.54754352D-03
 0.54754352D-03-0.49272437D-03 0.20128365D-03 0.20128365D-03-0.21392201D-03
 0.25005718D-03 0.25005718D-03-0.21392201D-03 0.36145121D-05-0.48810301D+00
 0.84247430D-02-0.25195584D-01 0.10595062D-01-0.48798662D-03 0.48798662D-03
-0.47305168D-03 0.10034305D-02-0.10034305D-02 0.94442951D-03 0.91219852D-03
-0.91219852D-03 0.47992185D-03-0.14693412D-02-0.14693412D-02-0.14646347D-02
-0.39007844D-05 0.75690051D-05-0.75690051D-05-0.47583656D-02-0.47583656D-02
-0.47779121D-02 0.31189715D-04-0.47022123D-04 0.47022123D-04-0.39979538D-03
 0.39979538D-03-0.36751870D-03-0.19167680D-03 0.19167680D-03-0.17086266D-03
-0.18558889D-03 0.18558889D-03-0.17086266D-03 0.68298290D-05 0.57786530D-02
 0.59083328D-03-0.59083328D-03 0.99350874D-04-0.22598392D-02-0.22598392D-02
-0.24173860D-02-0.24967453D-03 0.68293386D-04-0.68293386D-04-0.54754352D-03
 0.54754352D-03-0.49272437D-03-0.20128365D-03 0.20128365D-03-0.21392201D-03
-0.25005718D-03 0.25005718D-03-0.21392201D-03-0.36145121D-05-0.48810301D+00
 0.84247430D-02-0.25195584D-01 0.10595062D-01 0.48798662D-03-0.48798662D-03
-0.47305168D-03-0.10034305D-02 0.10034305D-02 0.94442951D-03-0.91219852D-03
 0.91219852D-03 0.47992185D-03-0.14693412D-02-0.14693412D-02-0.14646347D-02
-0.39007844D-05-0.75690051D-05 0.75690051D-05-0.47583656D-02-0.47583656D-02
-0.47779121D-02 0.31189715D-04 0.47022123D-04-0.47022123D-04 0.39979538D-03
-0.39979538D-03-0.36751870D-03 0.19167680D-03-0.19167680D-03-0.17086266D-03
 0.18558889D-03-0.18558889D-03-0.17086266D-03 0.68298290D-05 0.57786530D-02
-0.59083328D-03 0.59083328D-03 0.99350874D-04-0.22598392D-02-0.22598392D-02
-0.24173860D-02-0.24967453D-03-0.68293386D-04 0.68293386D-04 0.54754352D-03
-0.54754352D-03-0.49272437D-03 0.20128365D-03-0.20128365D-03-0.21392201D-03
 0.25005718D-03-0.25005718D-03-0.21392201D-03-0.36145121D-05
    4 Alpha MO OE=-0.26336509D+02
 0.00000000D+00 0.00000000D+00 0.00000000D+00 0.00000000D+00 0.00000000D+00
-0.44579923D-05 0.00000000D+00 0.00000000D+00-0.28676726D-03 0.00000000D+00
 0.00000000D+00-0.26489562D-03 0.00000000D+00 0.00000000D+00 0.13919950D-01
 0.00000000D+00 0.00000000D+00 0.00000000D+00 0.00000000D+00 0.00000000D+00
 0.00000000D+00 0.00000000D+00-0.35622827D-03 0.00000000D+00 0.00000000D+00
 0.00000000D+00 0.00000000D+00 0.00000000D+00-0.33915125D-04-0.63643706D-03
 0.00000000D+00 0.00000000D+00-0.61453331D-03 0.00000000D+00 0.00000000D+00
-0.61453331D-03 0.00000000D+00 0.00000000D+00 0.00000000D+00 0.00000000D+00
-0.89343644D-04 0.00000000D+00 0.00000000D+00 0.00000000D+00 0.00000000D+00
 0.00000000D+00 0.00000000D+00 0.00000000D+00 0.59644230D-03-0.41248563D-02
 0.00000000D+00 0.00000000D+00-0.22452018D-02 0.00000000D+00 0.00000000D+00
-0.22452018D-02 0.00000000D+00 0.00000000D+00 0.00000000D+00 0.48810301D+00
-0.84247430D-02 0.25195584D-01-0.10595062D-01-0.47305168D-03-0.48798662D-03
-0.48798662D-03 0.94442951D-03 0.10034305D-02 0.10034305D-02 0.47992184D-03
 0.91219852D-03 0.91219852D-03 0.14646347D-02 0.14693412D-02 0.14693412D-02
-0.75690051D-05-0.75690051D-05-0.39007844D-05 0.47779121D-02 0.47583656D-02
 0.47583656D-02 0.47022123D-04 0.47022123D-04 0.31189715D-04-0.36751870D-03
-0.39979538D-03-0.39979538D-03-0.17086266D-03-0.18558889D-03-0.18558889D-03
-0.17086266D-03-0.19167680D-03-0.19167680D-03-0.68298290D-05-0.57786530D-02
 0.99350874D-04 0.59083328D-03 0.59083328D-03 0.24173860D-02 0.22598392D-02
 0.22598392D-02-0.68293386D-04-0.68293386D-04-0.24967453D-03-0.49272437D-03
-0.54754352D-03-0.54754352D-03-0.21392201D-03-0.25005718D-03-0.25005718D-03
-0.21392201D-03-0.20128365D-03-0.20128365D-03 0.36145121D-05-0.48810301D+00
 0.84247430D-02-0.25195584D-01 0.10595062D-01-0.47305168D-03-0.48798662D-03
 0.48798662D-03 0.94442951D-03 0.10034305D-02-0.10034305D-02 0.47992184D-03
 0.91219852D-03-0.91219852D-03-0.14646347D-02-0.14693412D-02-0.14693412D-02
 0.75690051D-05-0.75690051D-05-0.39007844D-05-0.47779121D-02-0.47583656D-02
-0.47583656D-02-0.47022123D-04 0.47022123D-04 0.31189715D-04-0.36751870D-03
-0.39979538D-03 0.39979538D-03-0.17086266D-03-0.18558889D-03 0.18558889D-03
-0.17086266D-03-0.19167680D-03 0.19167680D-03 0.68298290D-05 0.57786530D-02
 0.99350874D-04 0.59083328D-03-0.59083328D-03-0.24173860D-02-0.22598392D-02
-0.22598392D-02 0.68293386D-04-0.68293386D-04-0.24967453D-03-0.49272437D-03
-0.54754352D-03 0.54754352D-03-0.21392201D-03-0.25005718D-03 0.25005718D-03
-0.21392201D-03-0.20128365D-03 0.20128365D-03-0.36145121D-05-0.48810301D+00
 0.84247430D-02-0.25195584D-01 0.10595062D-01-0.47305168D-03 0.48798662D-03
-0.48798662D-03 0.94442951D-03-0.10034305D-02 0.10034305D-02 0.47992184D-03
-0.91219852D-03 0.91219852D-03-0.14646347D-02-0.14693412D-02-0.14693412D-02
-0.75690051D-05 0.75690051D-05-0.39007844D-05-0.47779121D-02-0.47583656D-02
-0.47583656D-02 0.47022123D-04-0.47022123D-04 0.31189715D-04-0.36751870D-03
 0.39979538D-03-0.39979538D-03-0.17086266D-03 0.18558889D-03-0.18558889D-03
-0.17086266D-03 0.19167680D-03-0.19167680D-03 0.68298290D-05 0.57786530D-02
 0.99350874D-04-0.59083328D-03 0.59083328D-03-0.24173860D-02-0.22598392D-02
-0.22598392D-02-0.68293386D-04 0.68293386D-04-0.24967453D-03-0.49272437D-03
 0.54754352D-03-0.54754352D-03-0.21392201D-03 0.25005718D-03-0.25005718D-03
-0.21392201D-03 0.20128365D-03-0.20128365D-03-0.36145121D-05 0.48810301D+00
-0.84247430D-02 0.25195584D-01-0.10595062D-01-0.47305168D-03 0.48798662D-03
 0.48798662D-03 0.94442951D-03-0.10034305D-02-0.10034305D-02 0.47992184D-03
-0.91219852D-03-0.91219852D-03 0.14646347D-02 0.14693412D-02 0.14693412D-02
 0.75690051D-05 0.75690051D-05-0.39007844D-05 0.47779121D-02 0.47583656D-02
 0.47583656D-02-0.47022123D-04-0.47022123D-04 0.31189715D-04-0.36751870D-03
 0.39979538D-03 0.39979538D-03-0.17086266D-03 0.18558889D-03 0.18558889D-03
-0.17086266D-03 0.19167680D-03 0.19167680D-03-0.68298290D-05-0.57786530D-02
 0.99350874D-04-0.59083328D-03-0.59083328D-03 0.24173860D-02 0.22598392D-02
 0.22598392D-02 0.68293386D-04 0.68293386D-04-0.24967453D-03-0.49272437D-03
 0.54754352D-03 0.54754352D-03-0.21392201D-03 0.25005718D-03 0.25005718D-03
-0.21392201D-03 0.20128365D-03 0.20128365D-03 0.36145121D-05
    5 Alpha MO OE=-0.26336489D+02
 0.76297354D-05-0.62863396D-04-0.30919240D-03-0.13033447D-02 0.30713392D-01
 0.00000000D+00 0.00000000D+00 0.00000000D+00 0.00000000D+00 0.00000000D+00
 0.00000000D+00 0.00000000D+00 0.00000000D+00 0.00000000D+00 0.00000000D+00
 0.00000000D+00 0.00000000D+00-0.14311658D-02-0.14311658D-02-0.14311658D-02
 0.00000000D+00 0.00000000D+00 0.00000000D+00-0.29153146D-04-0.29153146D-04
-0.29153146D-04 0.00000000D+00 0.00000000D+00 0.00000000D+00 0.00000000D+00
 0.00000000D+00 0.00000000D+00 0.00000000D+00 0.00000000D+00 0.00000000D+00
 0.00000000D+00 0.00000000D+00 0.00000000D+00 0.13435393D-03-0.44857138D-02
 0.00000000D+00 0.00000000D+00 0.00000000D+00 0.17388753D-02 0.17388753D-02
 0.17388753D-02 0.00000000D+00 0.00000000D+00 0.00000000D+00 0.00000000D+00
 0.00000000D+00 0.00000000D+00 0.00000000D+00 0.00000000D+00 0.00000000D+00
 0.00000000D+00 0.00000000D+00 0.00000000D+00 0.52493916D-03 0.48810788D+00
-0.83775500D-02 0.25110984D-01-0.10950355D-01-0.49956990D-03-0.49956990D-03
-0.49956990D-03 0.11240641D-02 0.11240641D-02 0.11240641D-02 0.86580295D-03
 0.86580295D-03 0.86580295D-03 0.14490502D-02 0.14490502D-02 0.14490502D-02
 0.53307360D-06 0.53307360D-06 0.53307360D-06 0.46379218D-02 0.46379218D-02
 0.46379218D-02-0.33047102D-06-0.33047102D-06-0.33047102D-06-0.43554083D-03
-0.43554083D-03-0.43554083D-03-0.19796726D-03-0.19796726D-03-0.19796726D-03
-0.19796726D-03-0.19796726D-03-0.19796726D-03-0.59913399D-05-0.84500105D-02
 0.91052383D-03 0.91052383D-03 0.91052383D-03 0.21604243D-02 0.21604243D-02
 0.21604243D-02-0.12224508D-03-0.12224508D-03-0.12224508D-03-0.49521712D-03
-0.49521712D-03-0.49521712D-03-0.21862722D-03-0.21862722D-03-0.21862722D-03
-0.21862722D-03-0.21862722D-03-0.21862722D-03-0.45073479D-06 0.48810788D+00
-0.83775500D-02 0.25110984D-01-0.10950355D-01 0.49956990D-03 0.49956990D-03
-0.49956990D-03-0.11240641D-02-0.11240641D-02 0.11240641D-02-0.86580295D-03
-0.86580295D-03 0.86580295D-03 0.14490502D-02 0.14490502D-02 0.14490502D-02
 0.53307360D-06-0.53307360D-06-0.53307360D-06 0.46379218D-02 0.46379218D-02
 0.46379218D-02-0.33047102D-06 0.33047102D-06 0.33047102D-06 0.43554083D-03
 0.43554083D-03-0.43554083D-03 0.19796726D-03 0.19796726D-03-0.19796726D-03
 0.19796726D-03 0.19796726D-03-0.19796726D-03-0.59913399D-05-0.84500105D-02
-0.91052383D-03-0.91052383D-03 0.91052383D-03 0.21604243D-02 0.21604243D-02
 0.21604243D-02-0.12224508D-03 0.12224508D-03 0.12224508D-03 0.49521712D-03
 0.49521712D-03-0.49521712D-03 0.21862722D-03 0.21862722D-03-0.21862722D-03
 0.21862722D-03 0.21862722D-03-0.21862722D-03-0.45073479D-06 0.48810788D+00
-0.83775500D-02 0.25110984D-01-0.10950355D-01 0.49956990D-03-0.49956990D-03
 0.49956990D-03-0.11240641D-02 0.11240641D-02-0.11240641D-02-0.86580295D-03
 0.86580295D-03-0.86580295D-03 0.14490502D-02 0.14490502D-02 0.14490502D-02
-0.53307360D-06 0.53307360D-06-0.53307360D-06 0.46379218D-02 0.46379218D-02
 0.46379218D-02 0.33047102D-06-0.33047102D-06 0.33047102D-06 0.43554083D-03
-0.43554083D-03 0.43554083D-03 0.19796726D-03-0.19796726D-03 0.19796726D-03
 0.19796726D-03-0.19796726D-03 0.19796726D-03-0.59913399D-05-0.84500105D-02
-0.91052383D-03 0.91052383D-03-0.91052383D-03 0.21604243D-02 0.21604243D-02
 0.21604243D-02 0.12224508D-03-0.12224508D-03 0.12224508D-03 0.49521712D-03
-0.49521712D-03 0.49521712D-03 0.21862722D-03-0.21862722D-03 0.21862722D-03
 0.21862722D-03-0.21862722D-03 0.21862722D-03-0.45073479D-06 0.48810788D+00
-0.83775500D-02 0.25110984D-01-0.10950355D-01-0.49956990D-03 0.49956990D-03
 0.49956990D-03 0.11240641D-02-0.11240641D-02-0.11240641D-02 0.86580295D-03
-0.86580295D-03-0.86580295D-03 0.14490502D-02 0.14490502D-02 0.14490502D-02
-0.53307360D-06-0.53307360D-06 0.53307360D-06 0.46379218D-02 0.46379218D-02
 0.46379218D-02 0.33047102D-06 0.33047102D-06-0.33047102D-06-0.43554083D-03
 0.43554083D-03 0.43554083D-03-0.19796726D-03 0.19796726D-03 0.19796726D-03
-0.19796726D-03 0.19796726D-03 0.19796726D-03-0.59913399D-05-0.84500105D-02
 0.91052383D-03-0.91052383D-03-0.91052383D-03 0.21604243D-02 0.21604243D-02
 0.21604243D-02 0.12224508D-03 0.12224508D-03-0.12224508D-03-0.49521712D-03
 0.49521712D-03 0.49521712D-03-0.21862722D-03 0.21862722D-03 0.21862722D-03
-0.21862722D-03 0.21862722D-03 0.21862722D-03-0.45073479D-06
    6 Alpha MO OE=-0.62611400D+01
-0.27221178D+00 0.10007703D+01-0.16408789D-01 0.58393692D-01-0.34274863D-01
 0.00000000D+00 0.00000000D+00 0.00000000D+00 0.00000000D+00 0.00000000D+00
 0.00000000D+00 0.00000000D+00 0.00000000D+00 0.00000000D+00 0.00000000D+00
 0.00000000D+00 0.00000000D+00 0.83211793D-02 0.83211793D-02 0.83211793D-02
 0.00000000D+00 0.00000000D+00 0.00000000D+00 0.15678276D-02 0.15678276D-02
 0.15678276D-02 0.00000000D+00 0.00000000D+00 0.00000000D+00 0.00000000D+00
 0.00000000D+00 0.00000000D+00 0.00000000D+00 0.00000000D+00 0.00000000D+00
 0.00000000D+00 0.00000000D+00 0.00000000D+00-0.48913822D-03-0.34356894D-02
 0.00000000D+00 0.00000000D+00 0.00000000D+00 0.20688161D-02 0.20688161D-02
 0.20688161D-02 0.00000000D+00 0.00000000D+00 0.00000000D+00 0.00000000D+00
 0.00000000D+00 0.00000000D+00 0.00000000D+00 0.00000000D+00 0.00000000D+00
 0.00000000D+00 0.00000000D+00 0.00000000D+00-0.41385951D-03-0.41822699D-03
 0.84664170D-03 0.11232466D-03 0.16441650D-02-0.30333528D-03-0.30333528D-03
-0.30333528D-03-0.44074970D-03-0.44074970D-03-0.44074970D-03-0.67957171D-03
-0.67957171D-03-0.67957171D-03-0.48360378D-04-0.48360378D-04-0.48360378D-04
 0.26889870D-04 0.26889870D-04 0.26889870D-04-0.62922466D-05-0.62922466D-05
-0.62922466D-05 0.28032337D-03 0.28032337D-03 0.28032337D-03 0.15536486D-04
 0.15536486D-04 0.15536486D-04-0.56951118D-04-0.56951118D-04-0.56951118D-04
-0.56951118D-04-0.56951118D-04-0.56951118D-04-0.11752347D-03 0.37359219D-02
-0.52964459D-03-0.52964459D-03-0.52964459D-03 0.30719770D-04 0.30719770D-04
 0.30719770D-04 0.16668887D-03 0.16668887D-03 0.16668887D-03-0.65598348D-04
-0.65598348D-04-0.65598348D-04-0.94708681D-04-0.94708681D-04-0.94708681D-04
-0.94708681D-04-0.94708681D-04-0.94708681D-04-0.92629314D-04-0.41822699D-03
 0.84664170D-03 0.11232466D-03 0.16441650D-02 0.30333528D-03 0.30333528D-03
-0.30333528D-03 0.44074970D-03 0.44074970D-03-0.44074970D-03 0.67957171D-03
 0.67957171D-03-0.67957171D-03-0.48360378D-04-0.48360378D-04-0.48360378D-04
 0.26889870D-04-0.26889870D-04-0.26889870D-04-0.62922466D-05-0.62922466D-05
-0.62922466D-05 0.28032337D-03-0.28032337D-03-0.28032337D-03-0.15536486D-04
-0.15536486D-04 0.15536486D-04 0.56951118D-04 0.56951118D-04-0.56951118D-04
 0.56951118D-04 0.56951118D-04-0.56951118D-04-0.11752347D-03 0.37359219D-02
 0.52964459D-03 0.52964459D-03-0.52964459D-03 0.30719770D-04 0.30719770D-04
 0.30719770D-04 0.16668887D-03-0.16668887D-03-0.16668887D-03 0.65598348D-04
 0.65598348D-04-0.65598348D-04 0.94708681D-04 0.94708681D-04-0.94708681D-04
 0.94708681D-04 0.94708681D-04-0.94708681D-04-0.92629314D-04-0.41822699D-03
 0.84664170D-03 0.11232466D-03 0.16441650D-02 0.30333528D-03-0.30333528D-03
 0.30333528D-03 0.44074970D-03-0.44074970D-03 0.44074970D-03 0.67957171D-03
-0.67957171D-03 0.67957171D-03-0.48360378D-04-0.48360378D-04-0.48360378D-04
-0.26889870D-04 0.26889870D-04-0.26889870D-04-0.62922466D-05-0.62922466D-05
-0.62922466D-05-0.28032337D-03 0.28032337D-03-0.28032337D-03-0.15536486D-04
 0.15536486D-04-0.15536486D-04 0.56951118D-04-0.56951118D-04 0.56951118D-04
 0.56951118D-04-0.56951118D-04 0.56951118D-04-0.11752347D-03 0.37359219D-02
 0.52964459D-03-0.52964459D-03 0.52964459D-03 0.30719770D-04 0.30719770D-04
 0.30719770D-04-0.16668887D-03 0.16668887D-03-0.16668887D-03 0.65598348D-04
-0.65598348D-04 0.65598348D-04 0.94708681D-04-0.94708681D-04 0.94708681D-04
 0.94708681D-04-0.94708681D-04 0.94708681D-04-0.92629314D-04-0.41822699D-03
 0.84664170D-03 0.11232466D-03 0.16441650D-02-0.30333528D-03 0.30333528D-03
 0.30333528D-03-0.44074970D-03 0.44074970D-03 0.44074970D-03-0.67957171D-03
 0.67957171D-03 0.67957171D-03-0.48360378D-04-0.48360378D-04-0.48360378D-04
-0.26889870D-04-0.26889870D-04 0.26889870D-04-0.62922466D-05-0.62922466D-05
-0.62922466D-05-0.28032337D-03-0.28032337D-03 0.28032337D-03 0.15536486D-04
-0.15536486D-04-0.15536486D-04-0.56951118D-04 0.56951118D-04 0.56951118D-04
-0.56951118D-04 0.56951118D-04 0.56951118D-04-0.11752347D-03 0.37359219D-02
-0.52964459D-03 0.52964459D-03 0.52964459D-03 0.30719770D-04 0.30719770D-04
 0.30719770D-04-0.16668887D-03-0.16668887D-03 0.16668887D-03-0.65598348D-04
 0.65598348D-04 0.65598348D-04-0.94708681D-04 0.94708681D-04 0.94708681D-04
-0.94708681D-04 0.94708681D-04 0.94708681D-04-0.92629314D-04
    7 Alpha MO OE=-0.43703333D+01
 0.00000000D+00 0.00000000D+00 0.00000000D+00 0.00000000D+00 0.00000000D+00
 0.00000000D+00 0.00000000D+00 0.92065212D+00 0.00000000D+00 0.00000000D+00
-0.13315569D-02 0.00000000D+00 0.00000000D+00 0.13241521D+00 0.00000000D+00
 0.00000000D+00 0.40083847D-02 0.00000000D+00 0.00000000D+00 0.00000000D+00
-0.76632391D-03 0.00000000D+00 0.00000000D+00 0.00000000D+00 0.00000000D+00
 0.00000000D+00-0.20807685D-03 0.00000000D+00 0.00000000D+00 0.00000000D+00
 0.00000000D+00 0.56014871D-03 0.00000000D+00 0.00000000D+00 0.25730732D-03
 0.00000000D+00 0.00000000D+00 0.25730732D-03 0.00000000D+00 0.00000000D+00
 0.00000000D+00 0.00000000D+00-0.76374044D-04 0.00000000D+00 0.00000000D+00
 0.00000000D+00-0.16921009D-04 0.00000000D+00 0.00000000D+00 0.00000000D+00
 0.00000000D+00-0.19714435D-02 0.00000000D+00 0.00000000D+00-0.10582844D-02
 0.00000000D+00 0.00000000D+00-0.10582844D-02 0.00000000D+00-0.10175050D-02
 0.20578403D-02 0.84123925D-03 0.24614306D-03-0.81860239D-03-0.81860239D-03
-0.45150699D-03-0.14780186D-02-0.14780186D-02-0.94417605D-03-0.49156196D-03
-0.49156196D-03-0.38841702D-03 0.79910028D-04 0.79910028D-04 0.46271453D-05
 0.11194280D-03 0.69582465D-04 0.69582465D-04 0.57785999D-03 0.57785999D-03
 0.23704741D-03 0.51650272D-03 0.33187641D-03 0.33187641D-03 0.10143181D-03
 0.10143181D-03 0.15249939D-03-0.95791142D-05-0.95791142D-05 0.71720549D-05
 0.52056087D-04 0.52056087D-04 0.71720549D-05-0.62052941D-04-0.40093826D-03
 0.64842767D-04 0.64842767D-04-0.78521378D-04 0.44090038D-03 0.44090038D-03
 0.42391785D-03 0.94997874D-04 0.56527012D-04 0.56527012D-04-0.11439892D-04
-0.11439892D-04 0.63874427D-04-0.10309473D-03-0.10309473D-03-0.56075746D-04
-0.35371765D-04-0.35371765D-04-0.56075746D-04-0.12731131D-03-0.10175050D-02
 0.20578403D-02 0.84123925D-03 0.24614306D-03 0.81860239D-03 0.81860239D-03
-0.45150699D-03 0.14780186D-02 0.14780186D-02-0.94417605D-03 0.49156196D-03
 0.49156196D-03-0.38841702D-03 0.79910028D-04 0.79910028D-04 0.46271453D-05
 0.11194280D-03-0.69582465D-04-0.69582465D-04 0.57785999D-03 0.57785999D-03
 0.23704741D-03 0.51650272D-03-0.33187641D-03-0.33187641D-03-0.10143181D-03
-0.10143181D-03 0.15249939D-03 0.95791142D-05 0.95791142D-05 0.71720549D-05
-0.52056087D-04-0.52056087D-04 0.71720549D-05-0.62052941D-04-0.40093826D-03
-0.64842767D-04-0.64842767D-04-0.78521378D-04 0.44090038D-03 0.44090038D-03
 0.42391785D-03 0.94997874D-04-0.56527012D-04-0.56527012D-04 0.11439892D-04
 0.11439892D-04 0.63874427D-04 0.10309473D-03 0.10309473D-03-0.56075746D-04
 0.35371765D-04 0.35371765D-04-0.56075746D-04-0.12731131D-03 0.10175050D-02
-0.20578403D-02-0.84123925D-03-0.24614306D-03-0.81860239D-03 0.81860239D-03
-0.45150699D-03-0.14780186D-02 0.14780186D-02-0.94417605D-03-0.49156196D-03
 0.49156196D-03-0.38841702D-03-0.79910028D-04-0.79910028D-04-0.46271453D-05
 0.11194280D-03-0.69582465D-04 0.69582465D-04-0.57785999D-03-0.57785999D-03
-0.23704741D-03 0.51650272D-03-0.33187641D-03 0.33187641D-03 0.10143181D-03
-0.10143181D-03 0.15249939D-03-0.95791142D-05 0.95791142D-05 0.71720549D-05
 0.52056087D-04-0.52056087D-04 0.71720549D-05 0.62052941D-04 0.40093826D-03
 0.64842767D-04-0.64842767D-04-0.78521378D-04-0.44090038D-03-0.44090038D-03
-0.42391785D-03 0.94997874D-04-0.56527012D-04 0.56527012D-04-0.11439892D-04
 0.11439892D-04 0.63874427D-04-0.10309473D-03 0.10309473D-03-0.56075746D-04
-0.35371765D-04 0.35371765D-04-0.56075746D-04 0.12731131D-03 0.10175050D-02
-0.20578403D-02-0.84123925D-03-0.24614306D-03 0.81860239D-03-0.81860239D-03
-0.45150699D-03 0.14780186D-02-0.14780186D-02-0.94417605D-03 0.49156196D-03
-0.49156196D-03-0.38841702D-03-0.79910028D-04-0.79910028D-04-0.46271453D-05
 0.11194280D-03 0.69582465D-04-0.69582465D-04-0.57785999D-03-0.57785999D-03
-0.23704741D-03 0.51650272D-03 0.33187641D-03-0.33187641D-03-0.10143181D-03
[...]
 0.80463669D+00 0.80463669D+00 0.80463669D+00-0.18034408D+01-0.18034408D+01
-0.18034408D+01-0.77955878D+00-0.77955878D+00-0.77955878D+00-0.16821173D+01
-0.16821173D+01-0.16821173D+01-0.71828109D+00-0.71828109D+00-0.71828109D+00
-0.71828109D+00-0.71828109D+00-0.71828109D+00 0.75904535D-01-0.25164699D-01
-0.29546516D+01-0.31928618D+00-0.40721482D+01 0.84300718D+00 0.84300718D+00
-0.84300718D+00-0.40793574D+01-0.40793574D+01 0.40793574D+01-0.44737297D+01
-0.44737297D+01 0.44737297D+01 0.87706582D+00 0.87706582D+00 0.87706582D+00
-0.51794259D-02 0.51794259D-02 0.51794259D-02 0.53975023D+00 0.53975023D+00
 0.53975023D+00 0.48822189D-01-0.48822189D-01-0.48822189D-01 0.19118782D+01
 0.19118782D+01-0.19118782D+01 0.86139367D+00 0.86139367D+00-0.86139367D+00
 0.86139367D+00 0.86139367D+00-0.86139367D+00-0.20112386D-01-0.73299386D+01
-0.80463669D+00-0.80463669D+00 0.80463669D+00-0.18034408D+01-0.18034408D+01
-0.18034408D+01-0.77955878D+00 0.77955878D+00 0.77955878D+00 0.16821173D+01
 0.16821173D+01-0.16821173D+01 0.71828109D+00 0.71828109D+00-0.71828109D+00
 0.71828109D+00 0.71828109D+00-0.71828109D+00 0.75904535D-01-0.25164699D-01
-0.29546516D+01-0.31928618D+00-0.40721482D+01 0.84300718D+00-0.84300718D+00
 0.84300718D+00-0.40793574D+01 0.40793574D+01-0.40793574D+01-0.44737297D+01
 0.44737297D+01-0.44737297D+01 0.87706582D+00 0.87706582D+00 0.87706582D+00
 0.51794259D-02-0.51794259D-02 0.51794259D-02 0.53975023D+00 0.53975023D+00
 0.53975023D+00-0.48822189D-01 0.48822189D-01-0.48822189D-01 0.19118782D+01
-0.19118782D+01 0.19118782D+01 0.86139367D+00-0.86139367D+00 0.86139367D+00
 0.86139367D+00-0.86139367D+00 0.86139367D+00-0.20112386D-01-0.73299386D+01
-0.80463669D+00 0.80463669D+00-0.80463669D+00-0.18034408D+01-0.18034408D+01
-0.18034408D+01 0.77955878D+00-0.77955878D+00 0.77955878D+00 0.16821173D+01
-0.16821173D+01 0.16821173D+01 0.71828109D+00-0.71828109D+00 0.71828109D+00
 0.71828109D+00-0.71828109D+00 0.71828109D+00 0.75904535D-01-0.25164699D-01
-0.29546516D+01-0.31928618D+00-0.40721482D+01-0.84300718D+00 0.84300718D+00
 0.84300718D+00 0.40793574D+01-0.40793574D+01-0.40793574D+01 0.44737297D+01
-0.44737297D+01-0.44737297D+01 0.87706582D+00 0.87706582D+00 0.87706582D+00
 0.51794259D-02 0.51794259D-02-0.51794259D-02 0.53975023D+00 0.53975023D+00
 0.53975023D+00-0.48822189D-01-0.48822189D-01 0.48822189D-01-0.19118782D+01
 0.19118782D+01 0.19118782D+01-0.86139367D+00 0.86139367D+00 0.86139367D+00
-0.86139367D+00 0.86139367D+00 0.86139367D+00-0.20112386D-01-0.73299386D+01
 0.80463669D+00-0.80463669D+00-0.80463669D+00-0.18034408D+01-0.18034408D+01
-0.18034408D+01 0.77955878D+00 0.77955878D+00-0.77955878D+00-0.16821173D+01
 0.16821173D+01 0.16821173D+01-0.71828109D+00 0.71828109D+00 0.71828109D+00
-0.71828109D+00 0.71828109D+00 0.71828109D+00 0.75904535D-01
  276 Alpha MO OE= 0.23978600D+02
 0.00000000D+00 0.00000000D+00 0.00000000D+00 0.00000000D+00 0.00000000D+00
 0.00000000D+00 0.36856794D-01 0.00000000D+00 0.00000000D+00-0.11910493D+00
 0.00000000D+00 0.00000000D+00-0.36306774D+00 0.00000000D+00 0.00000000D+00
 0.72465977D+01 0.00000000D+00 0.00000000D+00 0.00000000D+00 0.00000000D+00
 0.00000000D+00-0.64984384D+00 0.00000000D+00 0.00000000D+00 0.00000000D+00
 0.00000000D+00 0.00000000D+00 0.98073132D-01 0.00000000D+00 0.00000000D+00
-0.10269496D+01 0.00000000D+00 0.00000000D+00-0.57298284D+00 0.00000000D+00
 0.00000000D+00-0.57298284D+00 0.00000000D+00 0.00000000D+00 0.00000000D+00
 0.00000000D+00-0.97417118D-01 0.00000000D+00 0.00000000D+00 0.00000000D+00
 0.00000000D+00 0.00000000D+00 0.25828716D+00 0.00000000D+00 0.00000000D+00
-0.26730225D+01 0.00000000D+00 0.00000000D+00-0.14200325D+01 0.00000000D+00
 0.00000000D+00-0.14200325D+01 0.00000000D+00 0.00000000D+00 0.40742485D+00
-0.28634130D+01 0.35088119D+00-0.66758295D+01 0.10212446D+00 0.14352140D+00
 0.10212446D+00-0.51238508D+00-0.70374676D+00-0.51238508D+00-0.16764929D+00
-0.43769850D+00-0.16764929D+00 0.16348855D+01 0.16333771D+01 0.16348855D+01
 0.50329890D-02 0.93154383D-02 0.50329890D-02 0.25461956D+01 0.25420088D+01
 0.25461956D+01-0.19180779D-01-0.22111460D-01-0.19180779D-01 0.22845143D+00
 0.32009052D+00 0.22845143D+00 0.10605879D+00 0.14864072D+00 0.91522665D-01
 0.91522665D-01 0.14864072D+00 0.10605879D+00-0.21173927D-02-0.26578076D+01
 0.27146158D+00 0.99886764D-01 0.27146158D+00 0.16242249D+01 0.17340531D+01
 0.16242249D+01 0.56201805D-01-0.56406465D-01 0.56201805D-01 0.17745290D+00
 0.28050945D+00 0.17745290D+00 0.69218412D-01 0.11988032D+00 0.12223432D+00
 0.12223432D+00 0.11988032D+00 0.69218412D-01 0.18824174D-01-0.40742485D+00
 0.28634130D+01-0.35088119D+00 0.66758295D+01 0.10212446D+00 0.14352140D+00
-0.10212446D+00-0.51238508D+00-0.70374676D+00 0.51238508D+00-0.16764929D+00
-0.43769850D+00 0.16764929D+00-0.16348855D+01-0.16333771D+01-0.16348855D+01
-0.50329890D-02 0.93154383D-02 0.50329890D-02-0.25461956D+01-0.25420088D+01
-0.25461956D+01 0.19180779D-01-0.22111460D-01-0.19180779D-01 0.22845143D+00
 0.32009052D+00-0.22845143D+00 0.10605879D+00 0.14864072D+00-0.91522665D-01
 0.91522665D-01 0.14864072D+00-0.10605879D+00 0.21173927D-02 0.26578076D+01
 0.27146158D+00 0.99886764D-01-0.27146158D+00-0.16242249D+01-0.17340531D+01
-0.16242249D+01-0.56201805D-01-0.56406465D-01 0.56201805D-01 0.17745290D+00
 0.28050945D+00-0.17745290D+00 0.69218412D-01 0.11988032D+00-0.12223432D+00
 0.12223432D+00 0.11988032D+00-0.69218412D-01-0.18824174D-01 0.40742485D+00
-0.28634130D+01 0.35088119D+00-0.66758295D+01-0.10212446D+00 0.14352140D+00
-0.10212446D+00 0.51238508D+00-0.70374676D+00 0.51238508D+00 0.16764929D+00
-0.43769850D+00 0.16764929D+00 0.16348855D+01 0.16333771D+01 0.16348855D+01
-0.50329890D-02 0.93154383D-02-0.50329890D-02 0.25461956D+01 0.25420088D+01
 0.25461956D+01 0.19180779D-01-0.22111460D-01 0.19180779D-01-0.22845143D+00
 0.32009052D+00-0.22845143D+00-0.10605879D+00 0.14864072D+00-0.91522665D-01
-0.91522665D-01 0.14864072D+00-0.10605879D+00-0.21173927D-02-0.26578076D+01
-0.27146158D+00 0.99886764D-01-0.27146158D+00 0.16242249D+01 0.17340531D+01
 0.16242249D+01-0.56201805D-01-0.56406465D-01-0.56201805D-01-0.17745290D+00
 0.28050945D+00-0.17745290D+00-0.69218412D-01 0.11988032D+00-0.12223432D+00
-0.12223432D+00 0.11988032D+00-0.69218412D-01 0.18824174D-01-0.40742485D+00
 0.28634130D+01-0.35088119D+00 0.66758295D+01-0.10212446D+00 0.14352140D+00
 0.10212446D+00 0.51238508D+00-0.70374676D+00-0.51238508D+00 0.16764929D+00
-0.43769850D+00-0.16764929D+00-0.16348855D+01-0.16333771D+01-0.16348855D+01
 0.50329890D-02 0.93154383D-02-0.50329890D-02-0.25461956D+01-0.25420088D+01
-0.25461956D+01-0.19180779D-01-0.22111460D-01 0.19180779D-01-0.22845143D+00
 0.32009052D+00 0.22845143D+00-0.10605879D+00 0.14864072D+00 0.91522665D-01
-0.91522665D-01 0.14864072D+00 0.10605879D+00 0.21173927D-02 0.26578076D+01
-0.27146158D+00 0.99886764D-01 0.27146158D+00-0.16242249D+01-0.17340531D+01
-0.16242249D+01 0.56201805D-01-0.56406465D-01-0.56201805D-01-0.17745290D+00
 0.28050945D+00 0.17745290D+00-0.69218412D-01 0.11988032D+00 0.12223432D+00
-0.12223432D+00 0.11988032D+00 0.69218412D-01-0.18824174D-01
  277 Alpha MO OE= 0.23978600D+02
 0.00000000D+00 0.00000000D+00 0.00000000D+00 0.00000000D+00 0.00000000D+00
 0.36856794D-01 0.00000000D+00 0.00000000D+00-0.11910493D+00 0.00000000D+00
 0.00000000D+00-0.36306774D+00 0.00000000D+00 0.00000000D+00 0.72465977D+01
 0.00000000D+00 0.00000000D+00 0.00000000D+00 0.00000000D+00 0.00000000D+00
 0.00000000D+00 0.00000000D+00-0.64984384D+00 0.00000000D+00 0.00000000D+00
 0.00000000D+00 0.00000000D+00 0.00000000D+00 0.98073132D-01-0.10269496D+01
 0.00000000D+00 0.00000000D+00-0.57298284D+00 0.00000000D+00 0.00000000D+00
-0.57298284D+00 0.00000000D+00 0.00000000D+00 0.00000000D+00 0.00000000D+00
-0.97417118D-01 0.00000000D+00 0.00000000D+00 0.00000000D+00 0.00000000D+00
 0.00000000D+00 0.00000000D+00 0.00000000D+00 0.25828716D+00-0.26730225D+01
 0.00000000D+00 0.00000000D+00-0.14200325D+01 0.00000000D+00 0.00000000D+00
-0.14200325D+01 0.00000000D+00 0.00000000D+00 0.00000000D+00 0.40742485D+00
-0.28634130D+01 0.35088119D+00-0.66758295D+01 0.14352140D+00 0.10212446D+00
 0.10212446D+00-0.70374676D+00-0.51238508D+00-0.51238508D+00-0.43769850D+00
-0.16764929D+00-0.16764929D+00 0.16333771D+01 0.16348855D+01 0.16348855D+01
 0.50329890D-02 0.50329890D-02 0.93154383D-02 0.25420088D+01 0.25461956D+01
 0.25461956D+01-0.19180779D-01-0.19180779D-01-0.22111460D-01 0.32009052D+00
 0.22845143D+00 0.22845143D+00 0.14864072D+00 0.10605879D+00 0.10605879D+00
 0.14864072D+00 0.91522665D-01 0.91522665D-01-0.21173927D-02-0.26578076D+01
 0.99886764D-01 0.27146158D+00 0.27146158D+00 0.17340531D+01 0.16242249D+01
 0.16242249D+01 0.56201805D-01 0.56201805D-01-0.56406465D-01 0.28050945D+00
 0.17745290D+00 0.17745290D+00 0.11988032D+00 0.69218412D-01 0.69218412D-01
 0.11988032D+00 0.12223432D+00 0.12223432D+00 0.18824174D-01-0.40742485D+00
 0.28634130D+01-0.35088119D+00 0.66758295D+01 0.14352140D+00 0.10212446D+00
-0.10212446D+00-0.70374676D+00-0.51238508D+00 0.51238508D+00-0.43769850D+00
-0.16764929D+00 0.16764929D+00-0.16333771D+01-0.16348855D+01-0.16348855D+01
-0.50329890D-02 0.50329890D-02 0.93154383D-02-0.25420088D+01-0.25461956D+01
-0.25461956D+01 0.19180779D-01-0.19180779D-01-0.22111460D-01 0.32009052D+00
 0.22845143D+00-0.22845143D+00 0.14864072D+00 0.10605879D+00-0.10605879D+00
 0.14864072D+00 0.91522665D-01-0.91522665D-01 0.21173927D-02 0.26578076D+01
 0.99886764D-01 0.27146158D+00-0.27146158D+00-0.17340531D+01-0.16242249D+01
-0.16242249D+01-0.56201805D-01 0.56201805D-01-0.56406465D-01 0.28050945D+00
 0.17745290D+00-0.17745290D+00 0.11988032D+00 0.69218412D-01-0.69218412D-01
 0.11988032D+00 0.12223432D+00-0.12223432D+00-0.18824174D-01-0.40742485D+00
 0.28634130D+01-0.35088119D+00 0.66758295D+01 0.14352140D+00-0.10212446D+00
 0.10212446D+00-0.70374676D+00 0.51238508D+00-0.51238508D+00-0.43769850D+00
 0.16764929D+00-0.16764929D+00-0.16333771D+01-0.16348855D+01-0.16348855D+01
 0.50329890D-02-0.50329890D-02 0.93154383D-02-0.25420088D+01-0.25461956D+01
-0.25461956D+01-0.19180779D-01 0.19180779D-01-0.22111460D-01 0.32009052D+00
-0.22845143D+00 0.22845143D+00 0.14864072D+00-0.10605879D+00 0.10605879D+00
 0.14864072D+00-0.91522665D-01 0.91522665D-01 0.21173927D-02 0.26578076D+01
 0.99886764D-01-0.27146158D+00 0.27146158D+00-0.17340531D+01-0.16242249D+01
-0.16242249D+01 0.56201805D-01-0.56201805D-01-0.56406465D-01 0.28050945D+00
-0.17745290D+00 0.17745290D+00 0.11988032D+00-0.69218412D-01 0.69218412D-01
 0.11988032D+00-0.12223432D+00 0.12223432D+00-0.18824174D-01 0.40742485D+00
-0.28634130D+01 0.35088119D+00-0.66758295D+01 0.14352140D+00-0.10212446D+00
-0.10212446D+00-0.70374676D+00 0.51238508D+00 0.51238508D+00-0.43769850D+00
 0.16764929D+00 0.16764929D+00 0.16333771D+01 0.16348855D+01 0.16348855D+01
-0.50329890D-02-0.50329890D-02 0.93154383D-02 0.25420088D+01 0.25461956D+01
 0.25461956D+01 0.19180779D-01 0.19180779D-01-0.22111460D-01 0.32009052D+00
-0.22845143D+00-0.22845143D+00 0.14864072D+00-0.10605879D+00-0.10605879D+00
 0.14864072D+00-0.91522665D-01-0.91522665D-01-0.21173927D-02-0.26578076D+01
 0.99886764D-01-0.27146158D+00-0.27146158D+00 0.17340531D+01 0.16242249D+01
 0.16242249D+01-0.56201805D-01-0.56201805D-01-0.56406465D-01 0.28050945D+00
-0.17745290D+00-0.17745290D+00 0.11988032D+00-0.69218412D-01-0.69218412D-01
 0.11988032D+00-0.12223432D+00-0.12223432D+00 0.18824174D-01
  278 Alpha MO OE= 0.23978600D+02
 0.00000000D+00 0.00000000D+00 0.00000000D+00 0.00000000D+00 0.00000000D+00
 0.00000000D+00 0.00000000D+00 0.36856794D-01 0.00000000D+00 0.00000000D+00
-0.11910493D+00 0.00000000D+00 0.00000000D+00-0.36306774D+00 0.00000000D+00
 0.00000000D+00 0.72465977D+01 0.00000000D+00 0.00000000D+00 0.00000000D+00
-0.64984384D+00 0.00000000D+00 0.00000000D+00 0.00000000D+00 0.00000000D+00
 0.00000000D+00 0.98073132D-01 0.00000000D+00 0.00000000D+00 0.00000000D+00
 0.00000000D+00-0.10269496D+01 0.00000000D+00 0.00000000D+00-0.57298284D+00
 0.00000000D+00 0.00000000D+00-0.57298284D+00 0.00000000D+00 0.00000000D+00
 0.00000000D+00 0.00000000D+00-0.97417118D-01 0.00000000D+00 0.00000000D+00
 0.00000000D+00 0.25828716D+00 0.00000000D+00 0.00000000D+00 0.00000000D+00
 0.00000000D+00-0.26730225D+01 0.00000000D+00 0.00000000D+00-0.14200325D+01
 0.00000000D+00 0.00000000D+00-0.14200325D+01 0.00000000D+00 0.40742485D+00
-0.28634130D+01 0.35088119D+00-0.66758295D+01 0.10212446D+00 0.10212446D+00
 0.14352140D+00-0.51238508D+00-0.51238508D+00-0.70374676D+00-0.16764929D+00
-0.16764929D+00-0.43769850D+00 0.16348855D+01 0.16348855D+01 0.16333771D+01
 0.93154383D-02 0.50329890D-02 0.50329890D-02 0.25461956D+01 0.25461956D+01
 0.25420088D+01-0.22111460D-01-0.19180779D-01-0.19180779D-01 0.22845143D+00
 0.22845143D+00 0.32009052D+00 0.91522665D-01 0.91522665D-01 0.14864072D+00
 0.10605879D+00 0.10605879D+00 0.14864072D+00-0.21173927D-02-0.26578076D+01
 0.27146158D+00 0.27146158D+00 0.99886764D-01 0.16242249D+01 0.16242249D+01
 0.17340531D+01-0.56406465D-01 0.56201805D-01 0.56201805D-01 0.17745290D+00
 0.17745290D+00 0.28050945D+00 0.12223432D+00 0.12223432D+00 0.11988032D+00
 0.69218412D-01 0.69218412D-01 0.11988032D+00 0.18824174D-01 0.40742485D+00
-0.28634130D+01 0.35088119D+00-0.66758295D+01-0.10212446D+00-0.10212446D+00
 0.14352140D+00 0.51238508D+00 0.51238508D+00-0.70374676D+00 0.16764929D+00
 0.16764929D+00-0.43769850D+00 0.16348855D+01 0.16348855D+01 0.16333771D+01
 0.93154383D-02-0.50329890D-02-0.50329890D-02 0.25461956D+01 0.25461956D+01
 0.25420088D+01-0.22111460D-01 0.19180779D-01 0.19180779D-01-0.22845143D+00
-0.22845143D+00 0.32009052D+00-0.91522665D-01-0.91522665D-01 0.14864072D+00
-0.10605879D+00-0.10605879D+00 0.14864072D+00-0.21173927D-02-0.26578076D+01
-0.27146158D+00-0.27146158D+00 0.99886764D-01 0.16242249D+01 0.16242249D+01
 0.17340531D+01-0.56406465D-01-0.56201805D-01-0.56201805D-01-0.17745290D+00
-0.17745290D+00 0.28050945D+00-0.12223432D+00-0.12223432D+00 0.11988032D+00
-0.69218412D-01-0.69218412D-01 0.11988032D+00 0.18824174D-01-0.40742485D+00
 0.28634130D+01-0.35088119D+00 0.66758295D+01 0.10212446D+00-0.10212446D+00
 0.14352140D+00-0.51238508D+00 0.51238508D+00-0.70374676D+00-0.16764929D+00
 0.16764929D+00-0.43769850D+00-0.16348855D+01-0.16348855D+01-0.16333771D+01
 0.93154383D-02-0.50329890D-02 0.50329890D-02-0.25461956D+01-0.25461956D+01
-0.25420088D+01-0.22111460D-01 0.19180779D-01-0.19180779D-01 0.22845143D+00
-0.22845143D+00 0.32009052D+00 0.91522665D-01-0.91522665D-01 0.14864072D+00
 0.10605879D+00-0.10605879D+00 0.14864072D+00 0.21173927D-02 0.26578076D+01
 0.27146158D+00-0.27146158D+00 0.99886764D-01-0.16242249D+01-0.16242249D+01
-0.17340531D+01-0.56406465D-01-0.56201805D-01 0.56201805D-01 0.17745290D+00
-0.17745290D+00 0.28050945D+00 0.12223432D+00-0.12223432D+00 0.11988032D+00
 0.69218412D-01-0.69218412D-01 0.11988032D+00-0.18824174D-01-0.40742485D+00
 0.28634130D+01-0.35088119D+00 0.66758295D+01-0.10212446D+00 0.10212446D+00
 0.14352140D+00 0.51238508D+00-0.51238508D+00-0.70374676D+00 0.16764929D+00
-0.16764929D+00-0.43769850D+00-0.16348855D+01-0.16348855D+01-0.16333771D+01
 0.93154383D-02 0.50329890D-02-0.50329890D-02-0.25461956D+01-0.25461956D+01
-0.25420088D+01-0.22111460D-01-0.19180779D-01 0.19180779D-01-0.22845143D+00
 0.22845143D+00 0.32009052D+00-0.91522665D-01 0.91522665D-01 0.14864072D+00
-0.10605879D+00 0.10605879D+00 0.14864072D+00 0.21173927D-02 0.26578076D+01
-0.27146158D+00 0.27146158D+00 0.99886764D-01-0.16242249D+01-0.16242249D+01
-0.17340531D+01-0.56406465D-01 0.56201805D-01-0.56201805D-01-0.17745290D+00
 0.17745290D+00 0.28050945D+00-0.12223432D+00 0.12223432D+00 0.11988032D+00
-0.69218412D-01 0.69218412D-01 0.11988032D+00-0.18824174D-01
  279 Alpha MO OE= 0.24483471D+02
 0.14511892D+00 0.19727126D+01 0.87603610D+01 0.25929455D+00 0.25691062D+01
 0.00000000D+00 0.00000000D+00 0.00000000D+00 0.00000000D+00 0.00000000D+00
 0.00000000D+00 0.00000000D+00 0.00000000D+00 0.00000000D+00 0.00000000D+00
 0.00000000D+00 0.00000000D+00 0.17394154D+01 0.17394154D+01 0.17394154D+01
 0.00000000D+00 0.00000000D+00 0.00000000D+00-0.12750079D+01-0.12750079D+01
-0.12750079D+01 0.00000000D+00 0.00000000D+00 0.00000000D+00 0.00000000D+00
 0.00000000D+00 0.00000000D+00 0.00000000D+00 0.00000000D+00 0.00000000D+00
 0.00000000D+00 0.00000000D+00 0.00000000D+00-0.23479083D+00 0.12299952D+01
 0.00000000D+00 0.00000000D+00 0.00000000D+00-0.58848136D+00-0.58848136D+00
-0.58848136D+00 0.00000000D+00 0.00000000D+00 0.00000000D+00 0.00000000D+00
 0.00000000D+00 0.00000000D+00 0.00000000D+00 0.00000000D+00 0.00000000D+00
 0.00000000D+00 0.00000000D+00 0.00000000D+00 0.12876329D+01-0.51296446D+00
 0.12885294D+01-0.61495586D+00 0.71093737D+01-0.53465081D+00-0.53465081D+00
-0.53465081D+00 0.25234940D+01 0.25234940D+01 0.25234940D+01 0.19078049D+01
 0.19078049D+01 0.19078049D+01-0.13319162D+01-0.13319162D+01-0.13319162D+01
-0.20578967D-01-0.20578967D-01-0.20578967D-01-0.26374181D+01-0.26374181D+01
-0.26374181D+01 0.71330842D-01 0.71330842D-01 0.71330842D-01-0.11783377D+01
-0.11783377D+01-0.11783377D+01-0.51913543D+00-0.51913543D+00-0.51913543D+00
-0.51913543D+00-0.51913543D+00-0.51913543D+00-0.39422773D-02 0.40244619D+00
-0.47804801D-01-0.47804801D-01-0.47804801D-01-0.27924025D+01-0.27924025D+01
-0.27924025D+01-0.13705771D+00-0.13705771D+00-0.13705771D+00-0.10945006D+01
-0.10945006D+01-0.10945006D+01-0.51044955D+00-0.51044955D+00-0.51044955D+00
-0.51044955D+00-0.51044955D+00-0.51044955D+00 0.92876699D-02-0.51296446D+00
 0.12885294D+01-0.61495586D+00 0.71093737D+01 0.53465081D+00 0.53465081D+00
-0.53465081D+00-0.25234940D+01-0.25234940D+01 0.25234940D+01-0.19078049D+01
-0.19078049D+01 0.19078049D+01-0.13319162D+01-0.13319162D+01-0.13319162D+01
-0.20578967D-01 0.20578967D-01 0.20578967D-01-0.26374181D+01-0.26374181D+01
-0.26374181D+01 0.71330842D-01-0.71330842D-01-0.71330842D-01 0.11783377D+01
 0.11783377D+01-0.11783377D+01 0.51913543D+00 0.51913543D+00-0.51913543D+00
 0.51913543D+00 0.51913543D+00-0.51913543D+00-0.39422773D-02 0.40244619D+00
 0.47804801D-01 0.47804801D-01-0.47804801D-01-0.27924025D+01-0.27924025D+01
-0.27924025D+01-0.13705771D+00 0.13705771D+00 0.13705771D+00 0.10945006D+01
 0.10945006D+01-0.10945006D+01 0.51044955D+00 0.51044955D+00-0.51044955D+00
 0.51044955D+00 0.51044955D+00-0.51044955D+00 0.92876699D-02-0.51296446D+00
 0.12885294D+01-0.61495586D+00 0.71093737D+01 0.53465081D+00-0.53465081D+00
 0.53465081D+00-0.25234940D+01 0.25234940D+01-0.25234940D+01-0.19078049D+01
 0.19078049D+01-0.19078049D+01-0.13319162D+01-0.13319162D+01-0.13319162D+01
 0.20578967D-01-0.20578967D-01 0.20578967D-01-0.26374181D+01-0.26374181D+01
-0.26374181D+01-0.71330842D-01 0.71330842D-01-0.71330842D-01 0.11783377D+01
-0.11783377D+01 0.11783377D+01 0.51913543D+00-0.51913543D+00 0.51913543D+00
 0.51913543D+00-0.51913543D+00 0.51913543D+00-0.39422773D-02 0.40244619D+00
 0.47804801D-01-0.47804801D-01 0.47804801D-01-0.27924025D+01-0.27924025D+01
-0.27924025D+01 0.13705771D+00-0.13705771D+00 0.13705771D+00 0.10945006D+01
-0.10945006D+01 0.10945006D+01 0.51044955D+00-0.51044955D+00 0.51044955D+00
 0.51044955D+00-0.51044955D+00 0.51044955D+00 0.92876699D-02-0.51296446D+00
 0.12885294D+01-0.61495586D+00 0.71093737D+01-0.53465081D+00 0.53465081D+00
 0.53465081D+00 0.25234940D+01-0.25234940D+01-0.25234940D+01 0.19078049D+01
-0.19078049D+01-0.19078049D+01-0.13319162D+01-0.13319162D+01-0.13319162D+01
 0.20578967D-01 0.20578967D-01-0.20578967D-01-0.26374181D+01-0.26374181D+01
-0.26374181D+01-0.71330842D-01-0.71330842D-01 0.71330842D-01-0.11783377D+01
 0.11783377D+01 0.11783377D+01-0.51913543D+00 0.51913543D+00 0.51913543D+00
-0.51913543D+00 0.51913543D+00 0.51913543D+00-0.39422773D-02 0.40244619D+00
-0.47804801D-01 0.47804801D-01 0.47804801D-01-0.27924025D+01-0.27924025D+01
-0.27924025D+01 0.13705771D+00 0.13705771D+00-0.13705771D+00-0.10945006D+01
 0.10945006D+01 0.10945006D+01-0.51044955D+00 0.51044955D+00 0.51044955D+00
-0.51044955D+00 0.51044955D+00 0.51044955D+00 0.92876699D-02
22405.6u 632.5s 1:38:13 390% 0+0k 678+110io 66pf+0w
Wed Nov  2 18:39:26 CST 2005
