[Molden Format]
[Molpro variables]
_NUMVAR=  901.0000000000000    
_AVOGAD= 0.6022136736000000E+24
_BOLTZ= 0.1380658000000000E-22
_CLIGHT=  29979245800.00000    
_EV= 0.3674932379085202E-01
_ENULL= 0.8854187817000000E-11
_KJOULE= 0.3808798324128737E-03
_KJOULE/MOL= 0.3808798324128737E-03
_CM= 0.4556335267302901E-05
_CM-1= 0.4556335267302901E-05
_DEB2SI= 0.3335641000000000E-29
_AMU2AU=  1822.888390000000    
_KCAL= 0.1593601117815568E-02
_KCAL/MOL= 0.1593601117815568E-02
_KELVIN= 0.3166811411060229E-05
_JOULE= 0.4359748200000000E-17
_HERTZ= 0.1519829846004524E-15
_HZ= 0.1519829846004524E-15
_JPCAL=  4.184000000000000    
_PLANCK= 0.6626075540000000E-33
_TOA= 0.5291772109200000    
_TOANG= 0.5291772109200000    
_TORAD= 0.1745329251994330E-01
_TOCM=  219474.6306700000    
_TODEBYE=  2.541580000000000    
_TOE= 0.4803242000000000E-09
_TOEV=  27.21138505000000    
_TOHERTZ=  6579683920729000.    
_TOHZ=  6579683920729000.    
_TOK=  315775.0400000000    
_TOKCAL=  627.5096000000000    
_TOKELVIN=  315775.0400000000    
_TOKJ=  2625.500000000000    
_TOKJOULE=  2625.500000000000    
_TOKG= 0.1660565586000000E-26
_ANG=  1.889726124565062    
_ANGSTROM=  1.889726124565062    
_RPAREF=  0.000000000000000    
_RPADISS=  0.000000000000000    
_IGNORE_UNDEF=  2.000000000000000    
_STRICTCHECK=  0.000000000000000    
_SEW_ONEEL=  0.000000000000000    
_CPPDONE=FALSE
_DKROLL_DONE=  0.000000000000000    
_FOCKDONE=TRUE
_GRADONE=FALSE
_HESSDONE=FALSE
_INTDONE=TRUE
_SCFDONE=TRUE
_MODUL_BLOCK=FALSE
_MODUL_CUDA=FALSE
_MODUL_SLATER=FALSE
_MODUL_MRCC=FALSE
_MODUL_NBO6=FALSE
_MODUL_NECI=TRUE
_MODUL_AIMS=TRUE
_MRCC_EXEC=
_FITC_AO_SAVED=FALSE
_FITC_MO_SAVED=FALSE
_SHARED_FS=TRUE
_LSTYP=SEWARD
_INTYP=INTS
_GEOMTYP=ZMAT
_GRADTYP=ALASKA
_DIRECT=FALSE
_DKHO= -1.000000000000000    
_SYNCM=  0.000000000000000    
_BASIS=6-31G
_ZORIENT=  1.000000000000000    
_NELEC=  42.00000000000000    
!SPIN=  0.000000000000000    
_QSDSTEP=  0.000000000000000    
_QSDIRC=  0.000000000000000    
_PROGRAM=RHF-SCF
_CPUSTEP= 0.1400000000000000    
_SYSSTEP= 0.3999999999999998E-01
_WALLSTEP= 0.2900000000000000    
!DFSCF=  0.000000000000000    
!SCSGRD=  0.000000000000000    
_BASINP=  610.0000000000000    
_CARTESIAN=TRUE
_CPUTOT= 0.4200000000000000    
_CPUSORT= 0.4000000000000004E-01
_SYSSORT= 0.4999999999999999E-01
_WALLSORT= 0.1500000022351742    
_DFTEXFAC=  1.000000000000000    
_DMX=  0.000000000000000    
_DMY=  0.000000000000000    
_DMZ=-0.1271205363195804E-12
_DMX_SCF=  0.000000000000000    
_DMY_SCF=  0.000000000000000    
_DMZ_SCF=-0.1271205363195804E-12
_EHOMO=-0.7021528102828342    
_ELUMO= 0.3727169922731429    
_EIGS= -26.39924373687311    
_ENERGY= -435.4837838315827    
_ENERGY_METHOD=RHF
_ENERGY_BASIS=6-31G
_GEOMETRY_METHOD=
_GEOMETRY_BASIS=
_ENUC=  206.6861572742911    
_GRADEXFAC=  9999.000000000000    
_GRADMETHOD=  1.000000000000000    
_NMRMETHOD=  0.000000000000000    
_NMRMAGNET=  0.000000000000000    
!GRID_FREEZE= -1.000000000000000    
_ITERATIONS=  9.000000000000000    
_LASTNELEC=  42.00000000000000    
_LASTSPIN=  0.000000000000000    
_LASTSYM=  1.000000000000000    
_MPP_PROG=  1.000000000000000    
_RS2PHASE=  0.000000000000000    
_NPROC_MPP=  23.00000000000000    
_NPROC_MPPX=  23.00000000000000    
_NPROC_SMP=  1.000000000000000    
_NUMSTEP=  0.000000000000000    
_ORBITAL=  2100.200000000000    
_PI=  3.141592653589793    
_SEIG_MIN= 0.1471293274967766E-01
_SEWPROP=TRUE
_STATUS=  1.000000000000000    
_SYSTOT= 0.1800000000000000    
_VERSION=  2015001.000000000    
_WALLTOT=  1.490000000000000    
_DATE=11-Oct-17
_LASTORB=RHF
_MACHINE= 64 bit mpp version
_OUTPUT=/scratch2/scratchdirs/lucchese/Molpro11991/molpro.xml
_PGROUP=C2v
_TIME=11:41:49
_LIBMOL=/global/common/sw/cray/cnl6/ivybridge/molpro/2015/intel/16.0.3.210/7qmpf6o/molprop_2015_1_none_x86_64_i8/lib/
_VIGRDC=  0.000000000000000    
!VIBCNT=  0.000000000000000    
!RGHFCNT=  0.000000000000000    
!SURFREC=  0.000000000000000    
!ROTREC=  0.000000000000000    
!POLYREC=  0.000000000000000    
!DIPREC=  0.000000000000000    
!DIP4DREC=  0.000000000000000    
!DIPROT=  0.000000000000000    
!DIP4DROT=  0.000000000000000    
!PTREC=  0.000000000000000    
!PT4DREC=  0.000000000000000    
!VSCFREC=  0.000000000000000    
!VCIREC=  0.000000000000000    
!PVCIREC=  0.000000000000000    
!VMP2REC=  0.000000000000000    
!VMCSCFREC=  0.000000000000000    
!VMRCIREC=  0.000000000000000    
!VIBSTATEREC=  0.000000000000000    
!VIBSTATECNT=  0.000000000000000    
!VIBINFO=  0.000000000000000    
!GAREC=  0.000000000000000    
!SCFORB=  21002.00000000000    
!NEWMOL= -1.000000000000000    
!NEWSYM= -1.000000000000000    
_SLFILES=slscratch
_NGSSTO=  9.000000000000000    
_SIN=SIN
_COS=COS
_TAN=TAN
_ACOS=ACOS
_ASIN=ASIN
_ATAN=ATAN
_COSH=COSH
_SINH=SINH
_TANH=TANH
_ABS=ABS
_MOD=MOD
_ERF=ERF
_REFC=REFC
_ERFC=ERFC
_HYPOT=HYPOT
_J0=J0
_J1=J1
_JN=JN
_GAMMA=GAMMA
_LGAMMA=LGAMMA
_Y0=Y0
_Y1=Y1
_YN=YN
_EXP=EXP
_LOG=LOG
_LOG10=LOG10
_SQRT=SQRT
_INT=INT
_NINT=NINT
_MAX=MAX
_MIN=MIN
_COSMO=  0.000000000000000    
_COSMOIT=  0.000000000000000    
_COSMOES=  0.000000000000000    
_COSMOEDS=  0.000000000000000    
_COSMOEC=  0.000000000000000    
_COSMOEDCORR=  0.000000000000000    
_FEPSI=  1.000000000000000    
_SL_IsMM=  0.000000000000000    
_SL_NSYM=  4.000000000000000    
_SL_System_BitSw=  0.000000000000000    
_SL_Unique_atoms=  0.000000000000000    
_SL_GRAD=  0.000000000000000    
_SL_MAXUPD_Hess=  5.000000000000000    
_SL_N_PRINT_COD=  5.000000000000000    
_SL_PRINT_CODES=  0.000000000000000    
_SL_BasType=  0.000000000000000    
_SL_Energy_Pred=  0.000000000000000    
_SL_New_Coords=  0.000000000000000    
_SL_Total_Nuclea=  0.000000000000000    
_SL_Highest_Mltp=  0.000000000000000    
_SL_Ref_Geom=  0.000000000000000    
_SL_Symmetry_ope=  1.000000000000000    
_SL_agrad=  0.000000000000000    
_SL_GrdMax=  0.000000000000000    
_SL_GrdNorm=  0.000000000000000    
_SL_GrdRMS=  0.000000000000000    
_SL_Hss_Q=  0.000000000000000    
_SL_Hss_X=  0.000000000000000    
_SL_BMxOld=  0.000000000000000    
_SL_KtB=  0.000000000000000    
_SL_TROld=  0.000000000000000    
_SL_No_of_Intern=  0.000000000000000    
_SL_Hess=  0.000000000000000    
_SL_K=  0.000000000000000    
!LATTICE= -1.000000000000000    
!NEWLATTICE=  0.000000000000000    
!LATGRAD_VAR=FALSE
!SEW_LATTICE=  1.000000000000000    
!LOCAL=  0.000000000000000    
!SAVEDOM= -1.000000000000000    
!RESTDOM= -1.000000000000000    
!SAVEDOM_HF= -1.000000000000000    
!RESTDOM_HF= -1.000000000000000    
!HESSREC=  0.000000000000000    
!FREQREC=  0.000000000000000    
!NMODREC=  0.000000000000000    
!GTASKS=  0.000000000000000    
!HTASKS=  0.000000000000000    
!SAVEDOM_EOM= -1.000000000000000    
!RESTDOM_EOM= -1.000000000000000    
!GRADSTATE= -1.000000000000000    
!THRCHG= 0.1000000000000000    
!DEBUG= -1.000000000000000    
!CFIT_CPHF=  0.000000000000000    
!RDOMAUX_CPHF=  3.000000000000000    
!THRAO_CPHF= 0.1000000000000000E-09
!THRMO_CPHF= 0.1000000000000000E-08
!THROV_CPHF= 0.1000000000000000E-11
!THRSW_CPHF= 0.1000000000000000E-09
!THRPROD_CPHF= 0.1000000000000000E-08
!THRAOPR_CPHF= 0.1000000000000000E-11
!CFIT_SCFGRD=  0.000000000000000    
!RDOMAUX_SCFGRD=  5.000000000000000    
!THRAO_SCFGRD= 0.1000000000000000E-09
!THRMO_SCFGRD= 0.1000000000000000E-08
!THROV_SCFGRD= 0.1000000000000000E-11
!THRSW_SCFGRD= 0.1000000000000000E-09
!THRPROD_SCFGRD= 0.1000000000000000E-08
!THRAOPR_SCFGRD= 0.1000000000000000E-11
!LOCFIT_SCF=  0.000000000000000    
!LOCFIT_MP2= -1.000000000000000    
_RIDOM=  0.000000000000000    
!CC2_METHOD=  0.000000000000000    
_BASIS2006=FALSE
_SVDDEL= -1.000000000000000    
_SVDDELA= -1.000000000000000    
_SVDDELP= -1.000000000000000    
_SVDDELF= -1.000000000000000    
_SVDDELS= -1.000000000000000    
_SVDDEL_ABS= -1.000000000000000    
_SVDDELA_ABS= -1.000000000000000    
_SVDDELP_ABS= -1.000000000000000    
_SVDDELF_ABS= -1.000000000000000    
_SVDDELS_ABS= -1.000000000000000    
_MAXBASIS=  0.000000000000000    
!OPT_CONICAL=  0.000000000000000    
!CLEARSP_JGRID=  0.000000000000000    
_GRDHYBR=  0.000000000000000    
_STATEGRAD=  1.000000000000000    
_4EXT_NDISKS=  1.000000000000000    
!ZMP=  0.000000000000000    
_MAXIT_ZMP=  500.0000000000000    
_MAXDIS_ZMP=  100.0000000000000    
_ACCU_ZMP=  14.00000000000000    
_SHIFTA_ZMP= -100.0000000000000    
!EMBEDFLAG=  1.000000000000000    
!EMBED=FALSE
!EMBED_F12=FALSE
!EMBEDNUC=  0.000000000000000    
_EMBEDENERGY=  0.000000000000000    
_KSPACETIME=  0.000000000000000    
_RSPACETIME=  0.000000000000000    
!EMBED_DFC=FALSE
!NUM_VOIDS=  0.000000000000000    
_IBODY=  0.000000000000000    
_EMBE_TOTAL=  0.000000000000000    
_EMBE_HF=  0.000000000000000    
_EMBE_CORR=  0.000000000000000    
!EMBED_PROJ=FALSE
!EMBED_TRUNC=  0.000000000000000    
!EMB_PROJ_ZMU=  1000000.000000000    
!CORRECTION=  0.000000000000000    
!CORRECTION_HF=  0.000000000000000    
!EMBED_ENERGY=  0.000000000000000    
!EMBED_NAXC=FALSE
!EMBED_AORB=  0.000000000000000    
!EMBED_NACORR=  0.000000000000000    
!EMBED_MP2=FALSE
!EMBED_TRUNC_PERTURBATION=FALSE
!EMBED_FROZEN=  0.000000000000000    
_CHANGE_BASIS=FALSE
_RESTORE_BASIS=FALSE
_FIX_EMBED_GUESS=FALSE
!EDFT=  0.000000000000000    
_IFASTLATGRAD=  0.000000000000000    
_SINDEX=  0.000000000000000    
_AVDOM_OSV=  0.000000000000000    
_AVDOM_PNO=  0.000000000000000    
_AVDOM_PAO=  0.000000000000000    
_AVDOM_LMO=  0.000000000000000    
_CC2OSV_FLAG=  0.000000000000000    
_TMADC2_FLAG=FALSE
_PROPADC2_FLAG=FALSE
_LEN_VirQ=  0.000000000000000    
_GRDCC2LR_FLAG=FALSE
_GRDADC2_FLAG=FALSE
R=  1.315000000000000    
T=  109.4712206344910    
GX1= 0.8710446623926120E-16
GY1=  0.000000000000000    
GZ1= 0.1420288769605877E-13
GX2=  2.028985719270290    
GY2=  0.000000000000000    
GZ2=  1.434709561026692    
GX3= -2.028985719270289    
GY3=  0.000000000000000    
GZ3=  1.434709561026692    
GX4=-0.3330669073875470E-15
GY4= -2.028985719270266    
GZ4= -1.434709561026696    
GX5=-0.3330669073875470E-15
GY5=  2.028985719270266    
GZ5= -1.434709561026696    
[Atoms] Angs
C     1    6         0.0000000000        0.0000000000        0.0000000000
F     2    9         1.0736930039        0.0000000000        0.7592156040
F     3    9        -1.0736930039        0.0000000000        0.7592156040
F     4    9         0.0000000000       -1.0736930039       -0.7592156040
F     5    9         0.0000000000        1.0736930039       -0.7592156040
[GTO]
   1 0
 s    6  1.00
  0.3047524900D+04  0.1834737091D-02
  0.4573695200D+03  0.1403732293D-01
  0.1039486800D+03  0.6884262165D-01
  0.2921015500D+02  0.2321844388D+00
  0.9286663000D+01  0.4679413476D+00
  0.3163927000D+01  0.3623119882D+00
 s    3  1.00
  0.7868272300D+01 -0.1193324245D+00
  0.1881288500D+01 -0.1608541561D+00
  0.5442492600D+00  0.1143456443D+01
 s    1  1.00
  0.1687144800D+00  0.1000000000D+01
 p    3  1.00
  0.7868272300D+01  0.6899906693D-01
  0.1881288500D+01  0.3164239597D+00
  0.5442492600D+00  0.7443082892D+00
 p    1  1.00
  0.1687144800D+00  0.1000000000D+01
  
   2 0
 s    6  1.00
  0.7001713100D+04  0.1819616892D-02
  0.1051366100D+04  0.1391607994D-01
  0.2392856900D+03  0.6840532469D-01
  0.6739744500D+02  0.2331857589D+00
  0.2151995700D+02  0.4712674378D+00
  0.7403101300D+01  0.3566185484D+00
 s    3  1.00
  0.2084795300D+02 -0.1085069785D+00
  0.4808308300D+01 -0.1464516580D+00
  0.1344069900D+01  0.1128688584D+01
 s    1  1.00
  0.3581513900D+00  0.1000000000D+01
 p    3  1.00
  0.2084795300D+02  0.7162872362D-01
  0.4808308300D+01  0.3459120982D+00
  0.1344069900D+01  0.7224699562D+00
 p    1  1.00
  0.3581513900D+00  0.1000000000D+01
  
   3 0
 s    6  1.00
  0.7001713100D+04  0.1819616892D-02
  0.1051366100D+04  0.1391607994D-01
  0.2392856900D+03  0.6840532469D-01
  0.6739744500D+02  0.2331857589D+00
  0.2151995700D+02  0.4712674378D+00
  0.7403101300D+01  0.3566185484D+00
 s    3  1.00
  0.2084795300D+02 -0.1085069785D+00
  0.4808308300D+01 -0.1464516580D+00
  0.1344069900D+01  0.1128688584D+01
 s    1  1.00
  0.3581513900D+00  0.1000000000D+01
 p    3  1.00
  0.2084795300D+02  0.7162872362D-01
  0.4808308300D+01  0.3459120982D+00
  0.1344069900D+01  0.7224699562D+00
 p    1  1.00
  0.3581513900D+00  0.1000000000D+01
  
   4 0
 s    6  1.00
  0.7001713100D+04  0.1819616892D-02
  0.1051366100D+04  0.1391607994D-01
  0.2392856900D+03  0.6840532469D-01
  0.6739744500D+02  0.2331857589D+00
  0.2151995700D+02  0.4712674378D+00
  0.7403101300D+01  0.3566185484D+00
 s    3  1.00
  0.2084795300D+02 -0.1085069785D+00
  0.4808308300D+01 -0.1464516580D+00
  0.1344069900D+01  0.1128688584D+01
 s    1  1.00
  0.3581513900D+00  0.1000000000D+01
 p    3  1.00
  0.2084795300D+02  0.7162872362D-01
  0.4808308300D+01  0.3459120982D+00
  0.1344069900D+01  0.7224699562D+00
 p    1  1.00
  0.3581513900D+00  0.1000000000D+01
  
   5 0
 s    6  1.00
  0.7001713100D+04  0.1819616892D-02
  0.1051366100D+04  0.1391607994D-01
  0.2392856900D+03  0.6840532469D-01
  0.6739744500D+02  0.2331857589D+00
  0.2151995700D+02  0.4712674378D+00
  0.7403101300D+01  0.3566185484D+00
 s    3  1.00
  0.2084795300D+02 -0.1085069785D+00
  0.4808308300D+01 -0.1464516580D+00
  0.1344069900D+01  0.1128688584D+01
 s    1  1.00
  0.3581513900D+00  0.1000000000D+01
 p    3  1.00
  0.2084795300D+02  0.7162872362D-01
  0.4808308300D+01  0.3459120982D+00
  0.1344069900D+01  0.7224699562D+00
 p    1  1.00
  0.3581513900D+00  0.1000000000D+01
 
 
[MO]
 Sym=      1.1
 Ene=     -26.3992
 Spin= Alpha
 Occup=    2.000000
1 -0.000000000000129
2 -0.000000000000395
3 0.000000000011299
4 0.0
5 0.0
6 0.000563558054120
7 0.0
8 0.0
9 0.003583574857531
10 0.49776665453707
11 0.011154177306844
12 -0.004239687350756
13 -0.000775102047532
14 0.0
15 -0.000472316583006
16 0.001337189995663
17 0.0
18 0.000240239863279
19 0.49776665453707
20 0.011154177306844
21 -0.004239687350756
22 0.000775102047532
23 0.0
24 -0.000472316583006
25 -0.001337189995663
26 0.0
27 0.000240239863279
28 -0.49776665361308
29 -0.011154177285073
30 0.004239687338237
31 0.0
32 -0.000775102046240
33 -0.000472316582093
34 0.0
35 0.001337189992229
36 0.000240239860850
37 -0.49776665361308
38 -0.011154177285073
39 0.004239687338237
40 0.0
41 0.000775102046240
42 -0.000472316582093
43 0.0
44 -0.001337189992229
45 0.000240239860850
 Sym=      1.2
 Ene=     -26.3992
 Spin= Alpha
 Occup=    2.000000
1 0.0
2 0.0
3 0.0
4 0.000563558027595
5 0.0
6 0.0
7 0.003583574653150
8 0.0
9 0.0
10 0.70394835308548
11 0.015774388775579
12 -0.005995823196924
13 -0.001020396526276
14 0.0
15 -0.000775102043833
16 0.001185775981177
17 0.0
18 0.001337189936840
19 -0.70394835308548
20 -0.015774388775579
21 0.005995823196924
22 -0.001020396526276
23 0.0
24 0.000775102043833
25 0.001185775981177
26 0.0
27 -0.001337189936840
28 0.0
29 0.0
30 0.0
31 0.000075763318630
32 0.0
33 0.0
34 -0.000705296181978
35 0.0
36 0.0
37 0.0
38 0.0
39 0.0
40 0.000075763318630
41 0.0
42 0.0
43 -0.000705296181978
44 0.0
45 0.0
 Sym=      1.3
 Ene=     -26.3992
 Spin= Alpha
 Occup=    2.000000
1 0.0
2 0.0
3 0.0
4 0.0
5 -0.000563558027595
6 0.0
7 0.0
8 -0.003583574653149
9 0.0
10 0.0
11 0.0
12 0.0
13 0.0
14 -0.000075763318629
15 0.0
16 0.0
17 0.000705296181977
18 0.0
19 0.0
20 0.0
21 0.0
22 0.0
23 -0.000075763318629
24 0.0
25 0.0
26 0.000705296181977
27 0.0
28 0.70394835308548
29 0.015774388775580
30 -0.005995823196925
31 0.0
32 0.001020396526276
33 0.000775102043833
34 0.0
35 -0.001185775981178
36 -0.001337189936840
37 -0.70394835308548
38 -0.015774388775580
39 0.005995823196925
40 0.0
41 0.001020396526276
42 -0.000775102043833
43 0.0
44 -0.001185775981178
45 0.001337189936840
 Sym=      2.1
 Ene=     -26.3992
 Spin= Alpha
 Occup=    2.000000
1 -0.000139032053585
2 -0.000425226330271
3 0.012176156640719
4 0.0
5 0.0
6 -0.000000000000523
7 0.0
8 0.0
9 -0.000000000003332
10 0.49781041220738
11 0.011730068339567
12 -0.006745325664820
13 -0.000695710946008
14 0.0
15 -0.000491941928670
16 0.001850501289058
17 0.0
18 0.001308502011230
19 0.49781041220738
20 0.011730068339567
21 -0.006745325664820
22 0.000695710946008
23 0.0
24 -0.000491941928670
25 -0.001850501289058
26 0.0
27 0.001308502011230
28 0.49781041313129
29 0.011730068360273
30 -0.006745325672695
31 0.0
32 0.000695710947446
33 0.000491941929545
34 0.0
35 -0.001850501291541
36 -0.001308502011673
37 0.49781041313129
38 0.011730068360273
39 -0.006745325672695
40 0.0
41 -0.000695710947446
42 0.000491941929545
43 0.0
44 0.001850501291541
45 -0.001308502011673
 Sym=      3.1
 Ene=     -11.6536
 Spin= Alpha
 Occup=    2.000000
1 0.99611411498775
2 0.022462685758056
3 -0.002714082470547
4 0.0
5 0.0
6 -0.000000000000000
7 0.0
8 0.0
9 -0.000000000000011
10 -0.000101846798952
11 0.000392300496373
12 -0.000955618960194
13 -0.000256423181851
14 0.0
15 -0.000181318570594
16 0.001011803585185
17 0.0
18 0.000715453159809
19 -0.000101846798952
20 0.000392300496373
21 -0.000955618960194
22 0.000256423181851
23 0.0
24 -0.000181318570594
25 -0.001011803585185
26 0.0
27 0.000715453159809
28 -0.000101846798952
29 0.000392300496376
30 -0.000955618960204
31 0.0
32 0.000256423181852
33 0.000181318570592
34 0.0
35 -0.001011803585192
36 -0.000715453159803
37 -0.000101846798952
38 0.000392300496376
39 -0.000955618960204
40 0.0
41 -0.000256423181852
42 0.000181318570592
43 0.0
44 0.001011803585192
45 -0.000715453159803
 Sym=      4.1
 Ene=      -1.8509
 Spin= Alpha
 Occup=    2.000000
1 -0.11184800962896
2 0.24996501360679
3 -0.069168160031509
4 0.0
5 0.0
6 -0.000000000000049
7 0.0
8 0.0
9 -0.000000000000300
10 -0.10200121923959
11 0.21474882647639
12 0.24506157646951
13 -0.053228655495603
14 0.0
15 -0.037638343269705
16 -0.037298310869913
17 0.0
18 -0.026373888553658
19 -0.10200121923959
20 0.21474882647639
21 0.24506157646951
22 0.053228655495603
23 0.0
24 -0.037638343269705
25 0.037298310869913
26 0.0
27 -0.026373888553658
28 -0.10200121923961
29 0.21474882647648
30 0.24506157646935
31 0.0
32 0.053228655495631
33 0.037638343269693
34 0.0
35 0.037298310869800
36 0.026373888553750
37 -0.10200121923961
38 0.21474882647648
39 0.24506157646935
40 0.0
41 -0.053228655495631
42 0.037638343269693
43 0.0
44 -0.037298310869800
45 0.026373888553750
 Sym=      2.2
 Ene=      -1.7095
 Spin= Alpha
 Occup=    2.000000
1 0.0
2 0.0
3 0.0
4 0.15534161586667
5 0.0
6 0.0
7 -0.050289572708546
8 0.0
9 0.0
10 -0.16415775943504
11 0.34921090039127
12 0.40033259241973
13 -0.044786983007488
14 0.0
15 -0.042219560801814
16 -0.037688843093217
17 0.0
18 -0.036036994074067
19 0.16415775943504
20 -0.34921090039127
21 -0.40033259241973
22 -0.044786983007488
23 0.0
24 0.042219560801814
25 -0.037688843093217
26 0.0
27 0.036036994074067
28 0.0
29 0.0
30 0.0
31 0.014920492726409
32 0.0
33 0.0
34 0.013275162527185
35 0.0
36 0.0
37 0.0
38 0.0
39 0.0
40 0.014920492726409
41 0.0
42 0.0
43 0.013275162527185
44 0.0
45 0.0
 Sym=      2.3
 Ene=      -1.7095
 Spin= Alpha
 Occup=    2.000000
1 0.0
2 0.0
3 0.0
4 0.0
5 -0.15534161586668
6 0.0
7 0.0
8 0.050289572708825
9 0.0
10 0.0
11 0.0
12 0.0
13 0.0
14 -0.014920492726396
15 0.0
16 0.0
17 -0.013275162527252
18 0.0
19 0.0
20 0.0
21 0.0
22 0.0
23 -0.014920492726396
24 0.0
25 0.0
26 -0.013275162527252
27 0.0
28 -0.16415775943504
29 0.34921090039126
30 0.40033259241988
31 0.0
32 0.044786983007481
33 0.042219560801806
34 0.0
35 0.037688843093163
36 0.036036994074130
37 0.16415775943504
38 -0.34921090039126
39 -0.40033259241988
40 0.0
41 0.044786983007481
42 -0.042219560801806
43 0.0
44 0.037688843093163
45 -0.036036994074130
 Sym=      5.1
 Ene=      -1.7095
 Spin= Alpha
 Occup=    2.000000
1 -0.000000000000029
2 0.000000000000026
3 0.000000000000477
4 0.0
5 0.0
6 0.15534161609108
7 0.0
8 0.0
9 -0.050289572219156
10 -0.11607706486329
11 0.24692939572285
12 0.28307789065706
13 -0.042219560715974
14 0.0
15 -0.014933245183564
16 -0.036036993874686
17 0.0
18 -0.012206840400838
19 -0.11607706486329
20 0.24692939572285
21 0.28307789065706
22 0.042219560715974
23 0.0
24 -0.014933245183564
25 0.036036993874686
26 0.0
27 -0.012206840400838
28 0.11607706486326
29 -0.24692939572268
30 -0.28307789065737
31 0.0
32 -0.042219560715950
33 -0.014933245183544
34 0.0
35 -0.036036993874857
36 -0.012206840400940
37 0.11607706486326
38 -0.24692939572268
39 -0.28307789065737
40 0.0
41 0.042219560715950
42 -0.014933245183544
43 0.0
44 0.036036993874857
45 -0.012206840400940
 Sym=      6.1
 Ene=      -1.0248
 Spin= Alpha
 Occup=    2.000000
1 0.14270472444079
2 -0.40587917446801
3 -0.074124031721283
4 0.0
5 0.0
6 0.000000000000003
7 0.0
8 0.0
9 -0.000000000000035
10 -0.060325770382326
11 0.13794196092832
12 0.18066903059598
13 0.18271218468446
14 0.0
15 0.12919702485527
16 0.10647638177560
17 0.0
18 0.075290171590462
19 -0.060325770382326
20 0.13794196092832
21 0.18066903059598
22 -0.18271218468446
23 0.0
24 0.12919702485527
25 -0.10647638177560
26 0.0
27 0.075290171590462
28 -0.060325770382326
29 0.13794196092833
30 0.18066903059594
31 0.0
32 -0.18271218468441
33 -0.12919702485532
34 0.0
35 -0.10647638177556
36 -0.075290171590539
37 -0.060325770382326
38 0.13794196092833
39 0.18066903059594
40 0.0
41 0.18271218468441
42 -0.12919702485532
43 0.0
44 0.10647638177556
45 -0.075290171590539
 Sym=      3.2
 Ene=      -0.9081
 Spin= Alpha
 Occup=    2.000000
1 0.0
2 0.0
3 0.0
4 -0.34708108040928
5 0.0
6 0.0
7 -0.073332671039287
8 0.0
9 0.0
10 -0.046438580974896
11 0.10414746280948
12 0.17608335033678
13 0.14187828468309
14 0.0
15 0.26661229040728
16 0.077716791609288
17 0.0
18 0.15733583514587
19 0.046438580974896
20 -0.10414746280948
21 -0.17608335033678
22 0.14187828468309
23 0.0
24 -0.26661229040728
25 0.077716791609288
26 0.0
27 -0.15733583514587
28 0.0
29 0.0
30 0.0
31 -0.23516843318144
32 0.0
33 0.0
34 -0.14478968100515
35 0.0
36 0.0
37 0.0
38 0.0
39 0.0
40 -0.23516843318144
41 0.0
42 0.0
43 -0.14478968100515
44 0.0
45 0.0
 Sym=      3.3
 Ene=      -0.9081
 Spin= Alpha
 Occup=    2.000000
1 0.0
2 0.0
3 0.0
4 0.0
5 -0.34708108040933
6 0.0
7 0.0
8 -0.073332671039697
9 0.0
10 0.0
11 0.0
12 0.0
13 0.0
14 -0.23516843318152
15 0.0
16 0.0
17 -0.14478968100508
18 0.0
19 0.0
20 0.0
21 0.0
22 0.0
23 -0.23516843318152
24 0.0
25 0.0
26 -0.14478968100508
27 0.0
28 0.046438580974892
29 -0.10414746280940
30 -0.17608335033701
31 0.0
32 0.14187828468299
33 0.26661229040730
34 0.0
35 0.077716791609111
36 0.15733583514579
37 -0.046438580974892
38 0.10414746280940
39 0.17608335033701
40 0.0
41 0.14187828468299
42 -0.26661229040730
43 0.0
44 0.077716791609111
45 -0.15733583514579
 Sym=      7.1
 Ene=      -0.9081
 Spin= Alpha
 Occup=    2.000000
1 0.000000000000054
2 0.000000000000024
3 -0.000000000001470
4 0.0
5 0.0
6 -0.34708108108261
7 0.0
8 0.0
9 -0.073332673383076
10 -0.032837035524909
11 0.073643376927432
12 0.12450973214248
13 0.26661229061148
14 0.0
15 -0.046645074080709
16 0.15733583474714
17 0.0
18 -0.033536444603980
19 -0.032837035524909
20 0.073643376927432
21 0.12450973214248
22 -0.26661229061148
23 0.0
24 -0.046645074080709
25 -0.15733583474714
26 0.0
27 -0.033536444603980
28 0.032837035524895
29 -0.073643376927682
30 -0.12450973214146
31 0.0
32 0.26661229061151
33 -0.046645074080655
34 0.0
35 0.15733583474762
36 -0.033536444603598
37 0.032837035524895
38 -0.073643376927682
39 -0.12450973214146
40 0.0
41 -0.26661229061151
42 -0.046645074080655
43 0.0
44 -0.15733583474762
45 -0.033536444603598
 Sym=      1.4
 Ene=      -0.7764
 Spin= Alpha
 Occup=    2.000000
1 0.0
2 0.0
3 0.0
4 0.0
5 0.0
6 0.0
7 0.0
8 0.0
9 0.0
10 0.0
11 0.0
12 0.0
13 0.0
14 0.32604136272121
15 0.0
16 0.0
17 0.23940539049853
18 0.0
19 0.0
20 0.0
21 0.0
22 0.0
23 -0.32604136272121
24 0.0
25 0.0
26 -0.23940539049853
27 0.0
28 0.0
29 0.0
30 0.0
31 -0.32604136272110
32 0.0
33 0.0
34 -0.23940539049845
35 0.0
36 0.0
37 0.0
38 0.0
39 0.0
40 0.32604136272110
41 0.0
42 0.0
43 0.23940539049845
44 0.0
45 0.0
 Sym=      8.1
 Ene=      -0.7764
 Spin= Alpha
 Occup=    2.000000
1 -0.000000000120271
2 0.000000000245846
3 0.000000002229670
4 0.0
5 0.0
6 0.000000000000062
7 0.0
8 0.0
9 0.000000000000608
10 0.000000000033175
11 0.000000000150826
12 -0.000000000856875
13 -0.18824006845430
14 0.0
15 0.26621165789862
16 -0.13822076631779
17 0.0
18 0.19547368309550
19 0.000000000033175
20 0.000000000150826
21 -0.000000000856875
22 0.18824006845430
23 0.0
24 0.26621165789862
25 0.13822076631779
26 0.0
27 0.19547368309550
28 0.000000000033171
29 0.000000000150706
30 -0.000000000856365
31 0.0
32 0.18824006845438
33 -0.26621165789834
34 0.0
35 0.13822076631817
36 -0.19547368309539
37 0.000000000033171
38 0.000000000150706
39 -0.000000000856365
40 0.0
41 -0.18824006845438
42 -0.26621165789834
43 0.0
44 -0.13822076631817
45 -0.19547368309539
 Sym=      9.1
 Ene=      -0.7170
 Spin= Alpha
 Occup=    2.000000
1 -0.000000000000020
2 -0.000000000000014
3 0.000000000000603
4 0.0
5 0.0
6 -0.17087650982337
7 0.0
8 0.0
9 0.15211610565472
10 -0.006055948384309
11 0.027929199770796
12 -0.033523492048871
13 0.025462874204109
14 0.0
15 0.33139834436434
16 0.041526932638832
17 0.0
18 0.23034310830807
19 -0.006055948384309
20 0.027929199770796
21 -0.033523492048871
22 -0.025462874204109
23 0.0
24 0.33139834436434
25 -0.041526932638832
26 0.0
27 0.23034310830807
28 0.006055948384319
29 -0.027929199770721
30 0.033523492048472
31 0.0
32 0.025462874203882
33 0.33139834436450
34 0.0
35 0.041526932638493
36 0.23034310830808
37 0.006055948384319
38 -0.027929199770721
39 0.033523492048472
40 0.0
41 -0.025462874203882
42 0.33139834436450
43 0.0
44 -0.041526932638493
45 0.23034310830808
 Sym=      4.2
 Ene=      -0.7170
 Spin= Alpha
 Occup=    2.000000
1 0.0
2 0.0
3 0.0
4 -0.17087650884072
5 0.0
6 0.0
7 0.15211610154583
8 0.0
9 0.0
10 -0.008564404333042
11 0.039497852567811
12 -0.047409375057375
13 0.34940331629495
14 0.0
15 0.025462873659432
16 0.25970708423892
17 0.0
18 0.041526931456258
19 0.008564404333042
20 -0.039497852567811
21 0.047409375057375
22 0.34940331629495
23 0.0
24 -0.025462873659432
25 0.25970708423892
26 0.0
27 -0.041526931456258
28 0.0
29 0.0
30 0.0
31 0.31339337264558
32 0.0
33 0.0
34 0.20097913316650
35 0.0
36 0.0
37 0.0
38 0.0
39 0.0
40 0.31339337264558
41 0.0
42 0.0
43 0.20097913316650
44 0.0
45 0.0
 Sym=      4.3
 Ene=      -0.7170
 Spin= Alpha
 Occup=    2.000000
1 0.0
2 0.0
3 0.0
4 0.0
5 -0.17087650884073
6 0.0
7 0.0
8 0.15211610154625
9 0.0
10 0.0
11 0.0
12 0.0
13 0.0
14 0.31339337264557
15 0.0
16 0.0
17 0.20097913316638
18 0.0
19 0.0
20 0.0
21 0.0
22 0.0
23 0.31339337264557
24 0.0
25 0.0
26 0.20097913316638
27 0.0
28 0.008564404333038
29 -0.039497852567845
30 0.047409375057592
31 0.0
32 0.34940331629496
33 0.025462873659620
34 0.0
35 0.25970708423892
36 0.041526931456509
37 -0.008564404333038
38 0.039497852567845
39 -0.047409375057592
40 0.0
41 0.34940331629496
42 -0.025462873659620
43 0.0
44 0.25970708423892
45 -0.041526931456509
 Sym=      5.2
 Ene=      -0.7022
 Spin= Alpha
 Occup=    2.000000
1 0.0
2 0.0
3 0.0
4 -0.000000000828256
5 0.0
6 0.0
7 0.000000001616801
8 0.0
9 0.0
10 -0.000000000039483
11 0.000000000342471
12 -0.000000000761872
13 -0.24718605459248
14 0.0
15 0.34957387244782
16 -0.17219111806148
17 0.0
18 0.24351501601960
19 0.000000000039483
20 -0.000000000342471
21 0.000000000761872
22 -0.24718605459248
23 0.0
24 -0.34957387244782
25 -0.17219111806148
26 0.0
27 -0.24351501601960
28 0.0
29 0.0
30 0.0
31 0.24718605596212
32 0.0
33 0.0
34 0.17219111883200
35 0.0
36 0.0
37 0.0
38 0.0
39 0.0
40 0.24718605596212
41 0.0
42 0.0
43 0.17219111883200
44 0.0
45 0.0
 Sym=      5.3
 Ene=      -0.7022
 Spin= Alpha
 Occup=    2.000000
1 0.0
2 0.0
3 0.0
4 0.0
5 -0.000000000828320
6 0.0
7 0.0
8 0.000000001616293
9 0.0
10 0.0
11 0.0
12 0.0
13 0.0
14 0.24718605596208
15 0.0
16 0.0
17 0.17219111883209
18 0.0
19 0.0
20 0.0
21 0.0
22 0.0
23 0.24718605596208
24 0.0
25 0.0
26 0.17219111883209
27 0.0
28 0.000000000039497
29 -0.000000000342457
30 0.000000000761588
31 0.0
32 -0.24718605459264
33 0.34957387244775
34 0.0
35 -0.17219111806160
36 0.24351501601943
37 -0.000000000039497
38 0.000000000342457
39 -0.000000000761588
40 0.0
41 -0.24718605459264
42 -0.34957387244775
43 0.0
44 -0.17219111806160
45 -0.24351501601943
 Sym=      2.4
 Ene=      -0.7022
 Spin= Alpha
 Occup=    2.000000
1 0.0
2 0.0
3 0.0
4 0.0
5 0.0
6 0.0
7 0.0
8 0.0
9 0.0
10 0.0
11 0.0
12 0.0
13 0.0
14 0.34957387212113
15 0.0
16 0.0
17 0.24351501552881
18 0.0
19 0.0
20 0.0
21 0.0
22 0.0
23 -0.34957387212113
24 0.0
25 0.0
26 -0.24351501552881
27 0.0
28 0.0
29 0.0
30 0.0
31 0.34957387212123
32 0.0
33 0.0
34 0.24351501552888
35 0.0
36 0.0
37 0.0
38 0.0
39 0.0
40 -0.34957387212123
41 0.0
42 0.0
43 -0.24351501552888
44 0.0
45 0.0
 Sym=      6.3
 Ene=       0.3727
 Spin= Alpha
 Occup=    0.000000
1 0.0
2 0.0
3 0.0
4 0.0
5 0.69625465510545
6 0.0
7 0.0
8 1.31489474154941
9 0.0
10 0.0
11 0.0
12 0.0
13 0.0
14 -0.19514827245004
15 0.0
16 0.0
17 -0.27853602249727
18 0.0
19 0.0
20 0.0
21 0.0
22 0.0
23 -0.19514827245004
24 0.0
25 0.0
26 -0.27853602249727
27 0.0
28 -0.060050999435038
29 0.10020719800925
30 0.72463507907147
31 0.0
32 0.11301307390012
33 0.21790297723195
34 0.0
35 0.25597671331769
36 0.37795758035131
37 0.060050999435038
38 -0.10020719800925
39 -0.72463507907147
40 0.0
41 0.11301307390012
42 -0.21790297723195
43 0.0
44 0.25597671331769
45 -0.37795758035131
 Sym=      6.2
 Ene=       0.3727
 Spin= Alpha
 Occup=    0.000000
1 0.0
2 0.0
3 0.0
4 0.69625465510597
5 0.0
6 0.0
7 1.31489474154802
8 0.0
9 0.0
10 0.060050999435053
11 -0.10020719800951
12 -0.72463507907076
13 0.11301307390042
14 0.0
15 0.21790297723189
16 0.25597671331767
17 0.0
18 0.37795758035106
19 -0.060050999435053
20 0.10020719800951
21 0.72463507907076
22 0.11301307390042
23 0.0
24 -0.21790297723189
25 0.25597671331767
26 0.0
27 -0.37795758035106
28 0.0
29 0.0
30 0.0
31 -0.19514827245003
32 0.0
33 0.0
34 -0.27853602249695
35 0.0
36 0.0
37 0.0
38 0.0
39 0.0
40 -0.19514827245003
41 0.0
42 0.0
43 -0.27853602249695
44 0.0
45 0.0
 Sym=     10.1
 Ene=       0.3727
 Spin= Alpha
 Occup=    0.000000
1 -0.000000000105397
2 0.000000000168155
3 0.000000001249739
4 0.0
5 0.0
6 0.69625465669140
7 0.0
8 0.0
9 1.31489473696822
10 0.042462468947476