 Entering Gaussian System, Link 0=g03
 Initial command:
 /usr/local/g03/g03/l1.exe /tmp/rrl581a/Gau-1668735.inp -scrdir=/tmp/rrl581a/
 Entering Link 1 = /usr/local/g03/g03/l1.exe PID=   1668688.
  
 Copyright (c) 1988,1990,1992,1993,1995,1998,2003,2004, Gaussian, Inc.
                  All Rights Reserved.
  
 This is the Gaussian(R) 03 program.  It is based on the
 the Gaussian(R) 98 system (copyright 1998, Gaussian, Inc.),
 the Gaussian(R) 94 system (copyright 1995, Gaussian, Inc.),
 the Gaussian 92(TM) system (copyright 1992, Gaussian, Inc.),
 the Gaussian 90(TM) system (copyright 1990, Gaussian, Inc.),
 the Gaussian 88(TM) system (copyright 1988, Gaussian, Inc.),
 the Gaussian 86(TM) system (copyright 1986, Carnegie Mellon
 University), and the Gaussian 82(TM) system (copyright 1983,
 Carnegie Mellon University). Gaussian is a federally registered
 trademark of Gaussian, Inc.
  
 This software contains proprietary and confidential information,
 including trade secrets, belonging to Gaussian, Inc.
  
 This software is provided under written license and may be
 used, copied, transmitted, or stored only in accord with that
 written license.
  
 The following legend is applicable only to US Government
 contracts under FAR:
  
                    RESTRICTED RIGHTS LEGEND
  
 Use, reproduction and disclosure by the US Government is
 subject to restrictions as set forth in subparagraphs (a)
 and (c) of the Commercial Computer Software - Restricted
 Rights clause in FAR 52.227-19.
  
 Gaussian, Inc.
 340 Quinnipiac St., Bldg. 40, Wallingford CT 06492
  
  
 ---------------------------------------------------------------
 Warning -- This program may not be used in any manner that
 competes with the business of Gaussian, Inc. or will provide
 assistance to any competitor of Gaussian, Inc.  The licensee
 of this program is prohibited from giving any competitor of
 Gaussian, Inc. access to this program.  By using this program,
 the user acknowledges that Gaussian, Inc. is engaged in the
 business of creating and licensing software in the field of
 computational chemistry and represents and warrants to the
 licensee that it is not a competitor of Gaussian, Inc. and that
 it will not use this program in any manner prohibited above.
 ---------------------------------------------------------------
  

 Cite this work as:
 Gaussian 03, Revision C.02,
 M. J. Frisch, G. W. Trucks, H. B. Schlegel, G. E. Scuseria, 
 M. A. Robb, J. R. Cheeseman, J. A. Montgomery, Jr., T. Vreven, 
 K. N. Kudin, J. C. Burant, J. M. Millam, S. S. Iyengar, J. Tomasi, 
 V. Barone, B. Mennucci, M. Cossi, G. Scalmani, N. Rega, 
 G. A. Petersson, H. Nakatsuji, M. Hada, M. Ehara, K. Toyota, 
 R. Fukuda, J. Hasegawa, M. Ishida, T. Nakajima, Y. Honda, O. Kitao, 
 H. Nakai, M. Klene, X. Li, J. E. Knox, H. P. Hratchian, J. B. Cross, 
 C. Adamo, J. Jaramillo, R. Gomperts, R. E. Stratmann, O. Yazyev, 
 A. J. Austin, R. Cammi, C. Pomelli, J. W. Ochterski, P. Y. Ayala, 
 K. Morokuma, G. A. Voth, P. Salvador, J. J. Dannenberg, 
 V. G. Zakrzewski, S. Dapprich, A. D. Daniels, M. C. Strain, 
 O. Farkas, D. K. Malick, A. D. Rabuck, K. Raghavachari, 
 J. B. Foresman, J. V. Ortiz, Q. Cui, A. G. Baboul, S. Clifford, 
 J. Cioslowski, B. B. Stefanov, G. Liu, A. Liashenko, P. Piskorz, 
 I. Komaromi, R. L. Martin, D. J. Fox, T. Keith, M. A. Al-Laham, 
 C. Y. Peng, A. Nanayakkara, M. Challacombe, P. M. W. Gill, 
 B. Johnson, W. Chen, M. W. Wong, C. Gonzalez, and J. A. Pople, 
 Gaussian, Inc., Wallingford CT, 2004.
 
 ******************************************
 Gaussian 03:  SGI64-G03RevC.02 12-Jun-2004
                24-May-2005 
 ******************************************
 -----------------------------------------------------
 # rhf/6-311G(2d,2p) 6D 10F scf=tight Gfinput PUNCH=MO
 -----------------------------------------------------
 1/38=1/1;
 2/17=6,18=5,40=1/2;
 3/5=4,6=6,7=202,8=22,11=1,16=1,24=10,25=1,30=1/1,2,3;
 4/7=1/1;
 5/5=2,32=2,38=5/2;
 6/7=2,8=2,9=2,10=2,28=1/1;
 99/5=1,9=1,10=32/99;
 ---------------
 SF6, Big BASIS.
 ---------------
 Symbolic Z-matrix:
 Charge =  0 Multiplicity = 1
 S
 F                    1    R
 F                    1    R        2    T
 F                    1    R        2    T        3    T        1
 F                    1    R        2    T        3    T        -1
 F                    1    R        2    T        4    T        1
 F                    1    R        3    T        4    T        -1
       Variables:
  R                     1.56023                  
  T                    90.                       
 
                          Input orientation:                          
 ---------------------------------------------------------------------
 Center     Atomic     Atomic              Coordinates (Angstroms)
 Number     Number      Type              X           Y           Z
 ---------------------------------------------------------------------
    1         16             0        0.000000    0.000000    0.000000
    2          9             0        0.000000    0.000000    1.560226
    3          9             0        1.560226    0.000000    0.000000
    4          9             0        0.000000    1.560226    0.000000
    5          9             0        0.000000   -1.560226    0.000000
    6          9             0       -1.560226    0.000000    0.000000
    7          9             0        0.000000    0.000000   -1.560226
 ---------------------------------------------------------------------
                    Distance matrix (angstroms):
                    1          2          3          4          5
     1  S    0.000000
     2  F    1.560226   0.000000
     3  F    1.560226   2.206493   0.000000
     4  F    1.560226   2.206493   2.206493   0.000000
     5  F    1.560226   2.206493   2.206493   3.120452   0.000000
     6  F    1.560226   2.206493   3.120452   2.206493   2.206493
     7  F    1.560226   3.120452   2.206493   2.206493   2.206493
                    6          7
     6  F    0.000000
     7  F    2.206493   0.000000
 Stoichiometry    F6S
 Framework group  OH[O(S),3C4(F.F)]
 Deg. of freedom     1
 Full point group                 OH      NOp  48
 Largest Abelian subgroup         D2H     NOp   8
 Largest concise Abelian subgroup D2H     NOp   8
                         Standard orientation:                         
 ---------------------------------------------------------------------
 Center     Atomic     Atomic              Coordinates (Angstroms)
 Number     Number      Type              X           Y           Z
 ---------------------------------------------------------------------
    1         16             0        0.000000    0.000000    0.000000
    2          9             0        0.000000    0.000000    1.560226
    3          9             0        0.000000    1.560226    0.000000
    4          9             0       -1.560226    0.000000    0.000000
    5          9             0        1.560226    0.000000    0.000000
    6          9             0        0.000000   -1.560226    0.000000
    7          9             0        0.000000    0.000000   -1.560226
 ---------------------------------------------------------------------
 Rotational constants (GHZ):      2.7319011      2.7319011      2.7319011
 Standard basis: 6-311G(2d,2p) (6D, 10F)
 AO basis set in the form of general basis input:
  1 0
 S   6 1.00       0.000000000000
      0.9341340000D+05  0.7429999567D-03
      0.1396170000D+05  0.5792999662D-02
      0.3169910000D+04  0.2995399825D-01
      0.9024560000D+03  0.1190279931D+00
      0.2971580000D+03  0.3684319785D+00
      0.1087020000D+03  0.5772989663D+00
 S   3 1.00       0.000000000000
      0.1087020000D+03  0.1431860600D+00
      0.4315530000D+02  0.6244652619D+00
      0.1810790000D+02  0.2833661188D+00
 S   1 1.00       0.000000000000
      0.5560090000D+01  0.1000000000D+01
 S   1 1.00       0.000000000000
      0.2131830000D+01  0.1000000000D+01
 S   1 1.00       0.000000000000
      0.4204030000D+00  0.1000000000D+01
 S   1 1.00       0.000000000000
      0.1360450000D+00  0.1000000000D+01
 P   4 1.00       0.000000000000
      0.4950400000D+03  0.8309002513D-02
      0.1172210000D+03  0.6402401937D-01
      0.3777490000D+02  0.2776140840D+00
      0.1405840000D+02  0.7450762254D+00
 P   2 1.00       0.000000000000
      0.5565740000D+01  0.6137116720D+00
      0.2262970000D+01  0.4438177628D+00
 P   1 1.00       0.000000000000
      0.8079940000D+00  0.1000000000D+01
 P   1 1.00       0.000000000000
      0.2774600000D+00  0.1000000000D+01
 P   1 1.00       0.000000000000
      0.7714100000D-01  0.1000000000D+01
 D   1 1.00       0.000000000000
      0.1300000000D+01  0.1000000000D+01
 D   1 1.00       0.000000000000
      0.3250000000D+00  0.1000000000D+01
 ****
  2 0
 S   6 1.00       0.000000000000
      0.1142710000D+05  0.1800930156D-02
      0.1722350000D+04  0.1374190119D-01
      0.3957460000D+03  0.6813340591D-01
      0.1151390000D+03  0.2333250202D+00
      0.3360260000D+02  0.5890860511D+00
      0.4919010000D+01  0.2995050260D+00
 SP   3 1.00       0.000000000000
      0.5544410000D+02  0.1145360155D+00  0.3546088738D-01
      0.1263230000D+02  0.9205121249D+00  0.2374509155D+00
      0.3717560000D+01 -0.3378040458D-02  0.8204577080D+00
 SP   1 1.00       0.000000000000
      0.1165450000D+01  0.1000000000D+01  0.1000000000D+01
 SP   1 1.00       0.000000000000
      0.3218920000D+00  0.1000000000D+01  0.1000000000D+01
 D   1 1.00       0.000000000000
      0.3500000000D+01  0.1000000000D+01
 D   1 1.00       0.000000000000
      0.8750000000D+00  0.1000000000D+01
 ****
  3 0
 S   6 1.00       0.000000000000
      0.1142710000D+05  0.1800930156D-02
      0.1722350000D+04  0.1374190119D-01
      0.3957460000D+03  0.6813340591D-01
      0.1151390000D+03  0.2333250202D+00
      0.3360260000D+02  0.5890860511D+00
      0.4919010000D+01  0.2995050260D+00
 SP   3 1.00       0.000000000000
      0.5544410000D+02  0.1145360155D+00  0.3546088738D-01
      0.1263230000D+02  0.9205121249D+00  0.2374509155D+00
      0.3717560000D+01 -0.3378040458D-02  0.8204577080D+00
 SP   1 1.00       0.000000000000
      0.1165450000D+01  0.1000000000D+01  0.1000000000D+01
 SP   1 1.00       0.000000000000
      0.3218920000D+00  0.1000000000D+01  0.1000000000D+01
 D   1 1.00       0.000000000000
      0.3500000000D+01  0.1000000000D+01
 D   1 1.00       0.000000000000
      0.8750000000D+00  0.1000000000D+01
 ****
  4 0
 S   6 1.00       0.000000000000
      0.1142710000D+05  0.1800930156D-02
      0.1722350000D+04  0.1374190119D-01
      0.3957460000D+03  0.6813340591D-01
      0.1151390000D+03  0.2333250202D+00
      0.3360260000D+02  0.5890860511D+00
      0.4919010000D+01  0.2995050260D+00
 SP   3 1.00       0.000000000000
      0.5544410000D+02  0.1145360155D+00  0.3546088738D-01
      0.1263230000D+02  0.9205121249D+00  0.2374509155D+00
      0.3717560000D+01 -0.3378040458D-02  0.8204577080D+00
 SP   1 1.00       0.000000000000
      0.1165450000D+01  0.1000000000D+01  0.1000000000D+01
 SP   1 1.00       0.000000000000
      0.3218920000D+00  0.1000000000D+01  0.1000000000D+01
 D   1 1.00       0.000000000000
      0.3500000000D+01  0.1000000000D+01
 D   1 1.00       0.000000000000
      0.8750000000D+00  0.1000000000D+01
 ****
  5 0
 S   6 1.00       0.000000000000
      0.1142710000D+05  0.1800930156D-02
      0.1722350000D+04  0.1374190119D-01
      0.3957460000D+03  0.6813340591D-01
      0.1151390000D+03  0.2333250202D+00
      0.3360260000D+02  0.5890860511D+00
      0.4919010000D+01  0.2995050260D+00
 SP   3 1.00       0.000000000000
      0.5544410000D+02  0.1145360155D+00  0.3546088738D-01
      0.1263230000D+02  0.9205121249D+00  0.2374509155D+00
      0.3717560000D+01 -0.3378040458D-02  0.8204577080D+00
 SP   1 1.00       0.000000000000
      0.1165450000D+01  0.1000000000D+01  0.1000000000D+01
 SP   1 1.00       0.000000000000
      0.3218920000D+00  0.1000000000D+01  0.1000000000D+01
 D   1 1.00       0.000000000000
      0.3500000000D+01  0.1000000000D+01
 D   1 1.00       0.000000000000
      0.8750000000D+00  0.1000000000D+01
 ****
  6 0
 S   6 1.00       0.000000000000
      0.1142710000D+05  0.1800930156D-02
      0.1722350000D+04  0.1374190119D-01
      0.3957460000D+03  0.6813340591D-01
      0.1151390000D+03  0.2333250202D+00
      0.3360260000D+02  0.5890860511D+00
      0.4919010000D+01  0.2995050260D+00
 SP   3 1.00       0.000000000000
      0.5544410000D+02  0.1145360155D+00  0.3546088738D-01
      0.1263230000D+02  0.9205121249D+00  0.2374509155D+00
      0.3717560000D+01 -0.3378040458D-02  0.8204577080D+00
 SP   1 1.00       0.000000000000
      0.1165450000D+01  0.1000000000D+01  0.1000000000D+01
 SP   1 1.00       0.000000000000
      0.3218920000D+00  0.1000000000D+01  0.1000000000D+01
 D   1 1.00       0.000000000000
      0.3500000000D+01  0.1000000000D+01
 D   1 1.00       0.000000000000
      0.8750000000D+00  0.1000000000D+01
 ****
  7 0
 S   6 1.00       0.000000000000
      0.1142710000D+05  0.1800930156D-02
      0.1722350000D+04  0.1374190119D-01
      0.3957460000D+03  0.6813340591D-01
      0.1151390000D+03  0.2333250202D+00
      0.3360260000D+02  0.5890860511D+00
      0.4919010000D+01  0.2995050260D+00
 SP   3 1.00       0.000000000000
      0.5544410000D+02  0.1145360155D+00  0.3546088738D-01
      0.1263230000D+02  0.9205121249D+00  0.2374509155D+00
      0.3717560000D+01 -0.3378040458D-02  0.8204577080D+00
 SP   1 1.00       0.000000000000
      0.1165450000D+01  0.1000000000D+01  0.1000000000D+01
 SP   1 1.00       0.000000000000
      0.3218920000D+00  0.1000000000D+01  0.1000000000D+01
 D   1 1.00       0.000000000000
      0.3500000000D+01  0.1000000000D+01
 D   1 1.00       0.000000000000
      0.8750000000D+00  0.1000000000D+01
 ****

 There are    51 symmetry adapted basis functions of AG  symmetry.
 There are    14 symmetry adapted basis functions of B1G symmetry.
 There are    14 symmetry adapted basis functions of B2G symmetry.
 There are    14 symmetry adapted basis functions of B3G symmetry.
 There are     6 symmetry adapted basis functions of AU  symmetry.
 There are    28 symmetry adapted basis functions of B1U symmetry.
 There are    28 symmetry adapted basis functions of B2U symmetry.
 There are    28 symmetry adapted basis functions of B3U symmetry.
 Integral buffers will be    131072 words long.
 Raffenetti 1 integral format.
 Two-electron integral symmetry is turned on.
   183 basis functions,   280 primitive gaussians,   183 cartesian basis functions
    35 alpha electrons       35 beta electrons
       nuclear repulsion energy       567.3611666242 Hartrees.
 NAtoms=    7 NActive=    7 NUniq=    2 SFac= 5.66D+00 NAtFMM=   60 Big=F
 One-electron integrals computed using PRISM.
 NBasis=   183 RedAO= T  NBF=    51    14    14    14     6    28    28    28
 NBsUse=   183 1.00D-06 NBFU=    51    14    14    14     6    28    28    28
 Harris functional with IExCor=  205 diagonalized for initial guess.
 ExpMin= 7.71D-02 ExpMax= 9.34D+04 ExpMxC= 3.17D+03 IAcc=2 IRadAn=         4 AccDes= 0.00D+00
 HarFok:  IExCor= 205 AccDes= 0.00D+00 IRadAn=         4 IDoV=1
 ScaDFX=  1.000000  1.000000  1.000000  1.000000
 Initial guess orbital symmetries:
       Occupied  (A1G) (A1G) (T1U) (T1U) (T1U) (EG) (EG) (A1G)
                 (T1U) (T1U) (T1U) (A1G) (T1U) (T1U) (T1U) (EG)
                 (EG) (A1G) (T1U) (T1U) (T1U) (T2G) (T2G) (T2G)
                 (EG) (EG) (T1U) (T1U) (T1U) (T2U) (T2U) (T2U)
                 (T1G) (T1G) (T1G)
       Virtual   (A1G) (T1U) (T1U) (T1U) (T1U) (T1U) (T1U) (A1G)
                 (T2G) (T2G) (T2G) (EG) (EG) (T2G) (T2G) (T2G)
                 (A1G) (T1U) (T1U) (T1U) (T2U) (T2U) (T2U) (EG)
                 (EG) (T1U) (T1U) (T1U) (EG) (EG) (T1G) (T1G) (T1G)
                 (A1G) (T1U) (T1U) (T1U) (T1U) (T1U) (T1U) (A1G)
                 (T2U) (T2U) (T2U) (A2U) (T2G) (T2G) (T2G) (EG)
                 (EG) (EU) (EU) (A2G) (T2G) (T2G) (T2G) (T2U) (T2U)
                 (T2U) (T1G) (T1G) (T1G) (T1U) (T1U) (T1U) (T1U)
                 (T1U) (T1U) (A1G) (EG) (EG) (EG) (EG) (T2G) (T2G)
                 (T2G) (EG) (EG) (A1G) (T1U) (T1U) (T1U) (A1G)
                 (T2G) (T2G) (T2G) (T1U) (T1U) (T1U) (T2U) (T2U)
                 (T2U) (T1G) (T1G) (T1G) (A1G) (T1U) (T1U) (T1U)
                 (EG) (EG) (T2U) (T2U) (T2U) (A2U) (T2G) (T2G)
                 (T2G) (EU) (EU) (A2G) (T2U) (T2U) (T2U) (EG) (EG)
                 (T1G) (T1G) (T1G) (T1U) (T1U) (T1U) (T2G) (T2G)
                 (T2G) (T1U) (T1U) (T1U) (A1G) (EG) (EG) (A1G)
                 (T1U) (T1U) (T1U) (EG) (EG) (T1U) (T1U) (T1U)
                 (A1G) (EG) (EG) (T1U) (T1U) (T1U) (A1G) (A1G)
 The electronic state of the initial guess is 1-A1G.
 Requested convergence on RMS density matrix=1.00D-08 within 128 cycles.
 Requested convergence on MAX density matrix=1.00D-06.
 Requested convergence on             energy=1.00D-06.
 No special actions if energy rises.
 Integral accuracy reduced to 1.0D-05 until final iterations.
 Initial convergence to 1.0D-05 achieved.  Increase integral accuracy.
 SCF Done:  E(RHF) =  -994.219726166     A.U. after   11 cycles
             Convg  =    0.3041D-08             -V/T =  2.0009
             S**2   =   0.0000

 **********************************************************************

            Population analysis using the SCF density.

 **********************************************************************

 Orbital symmetries:
       Occupied  (A1G) (EG) (EG) (T1U) (T1U) (T1U) (A1G) (A1G)
                 (T1U) (T1U) (T1U) (A1G) (T1U) (T1U) (T1U) (EG)
                 (EG) (A1G) (T1U) (T1U) (T1U) (T2G) (T2G) (T2G)
                 (EG) (EG) (T2U) (T2U) (T2U) (T1U) (T1U) (T1U)
                 (T1G) (T1G) (T1G)
       Virtual   (A1G) (T1U) (T1U) (T1U) (T1U) (T1U) (T1U) (A1G)
                 (T2G) (T2G) (T2G) (EG) (EG) (T2G) (T2G) (T2G)
                 (A1G) (T1U) (T1U) (T1U) (EG) (EG) (T1U) (T1U)
                 (T1U) (T2U) (T2U) (T2U) (EG) (EG) (A1G) (T1G)
                 (T1G) (T1G) (T1U) (T1U) (T1U) (T1U) (T1U) (T1U)
                 (A1G) (T2U) (T2U) (T2U) (A2U) (T2G) (T2G) (T2G)
                 (EG) (EG) (EU) (EU) (T2G) (T2G) (T2G) (A2G) (T2U)
                 (T2U) (T2U) (T1G) (T1G) (T1G) (T1U) (T1U) (T1U)
                 (T1U) (T1U) (T1U) (A1G) (EG) (EG) (EG) (EG) (T2G)
                 (T2G) (T2G) (EG) (EG) (A1G) (T1U) (T1U) (T1U)
                 (A1G) (T2G) (T2G) (T2G) (T1U) (T1U) (T1U) (T2U)
                 (T2U) (T2U) (T1G) (T1G) (T1G) (A1G) (T1U) (T1U)
                 (T1U) (EG) (EG) (T2U) (T2U) (T2U) (A2U) (T2G)
                 (T2G) (T2G) (EU) (EU) (A2G) (T2U) (T2U) (T2U)
                 (T1G) (T1G) (T1G) (EG) (EG) (T1U) (T1U) (T1U)
                 (T2G) (T2G) (T2G) (T1U) (T1U) (T1U) (A1G) (EG)
                 (EG) (A1G) (T1U) (T1U) (T1U) (EG) (EG) (T1U) (T1U)
                 (T1U) (A1G) (EG) (EG) (T1U) (T1U) (T1U) (A1G)
                 (A1G)
 The electronic state is 1-A1G.
 Alpha  occ. eigenvalues --  -92.44786 -26.38559 -26.38559 -26.38557 -26.38557
 Alpha  occ. eigenvalues --  -26.38557 -26.38552  -9.38875  -7.07791  -7.07791
 Alpha  occ. eigenvalues --   -7.07791  -1.84356  -1.71084  -1.71084  -1.71084
 Alpha  occ. eigenvalues --   -1.65594  -1.65594  -1.09995  -0.92433  -0.92433
 Alpha  occ. eigenvalues --   -0.92433  -0.83133  -0.83133  -0.83133  -0.73766
 Alpha  occ. eigenvalues --   -0.73766  -0.72481  -0.72481  -0.72481  -0.71205
 Alpha  occ. eigenvalues --   -0.71205  -0.71205  -0.67752  -0.67752  -0.67752
 Alpha virt. eigenvalues --    0.15788   0.26367   0.26367   0.26367   0.37670
 Alpha virt. eigenvalues --    0.37670   0.37670   0.38305   0.58856   0.58856
 Alpha virt. eigenvalues --    0.58856   0.88582   0.88582   1.03966   1.03966
 Alpha virt. eigenvalues --    1.03966   1.07476   1.09344   1.09344   1.09344
 Alpha virt. eigenvalues --    1.17527   1.17527   1.19188   1.19188   1.19188
 Alpha virt. eigenvalues --    1.22822   1.22822   1.22822   1.33642   1.33642
 Alpha virt. eigenvalues --    1.44215   1.44613   1.44613   1.44613   1.61489
 Alpha virt. eigenvalues --    1.61489   1.61489   1.89555   1.89555   1.89555
 Alpha virt. eigenvalues --    1.94471   2.06459   2.06459   2.06459   2.12074
 Alpha virt. eigenvalues --    2.16803   2.16803   2.16803   2.21221   2.21221
 Alpha virt. eigenvalues --    2.25041   2.25041   2.31174   2.31174   2.31174
 Alpha virt. eigenvalues --    2.35295   2.40992   2.40992   2.40992   2.46353
 Alpha virt. eigenvalues --    2.46353   2.46353   2.89644   2.89644   2.89644
 Alpha virt. eigenvalues --    3.17182   3.17182   3.17182   3.19084   3.24403
 Alpha virt. eigenvalues --    3.24403   3.38483   3.38483   3.40183   3.40183
 Alpha virt. eigenvalues --    3.40183   4.00827   4.00827   4.01749   4.18257
 Alpha virt. eigenvalues --    4.18257   4.18257   4.61131   6.57437   6.57437
 Alpha virt. eigenvalues --    6.57437   6.65861   6.65861   6.65861   6.67053
 Alpha virt. eigenvalues --    6.67053   6.67053   6.78564   6.78564   6.78564
 Alpha virt. eigenvalues --    6.89858   6.95247   6.95247   6.95247   7.16821
 Alpha virt. eigenvalues --    7.16821   9.50792   9.50792   9.50792   9.54352
 Alpha virt. eigenvalues --    9.59856   9.59856   9.59856   9.61455   9.61455
 Alpha virt. eigenvalues --    9.68004   9.72080   9.72080   9.72080   9.76730
 Alpha virt. eigenvalues --    9.76730   9.76730   9.77363   9.77363   9.94165
 Alpha virt. eigenvalues --    9.94165   9.94165  10.12160  10.12160  10.12160
 Alpha virt. eigenvalues --   10.16283  10.16283  10.16283  10.31827  10.37465
 Alpha virt. eigenvalues --   10.37465  12.80606  18.46417  18.46417  18.46417
 Alpha virt. eigenvalues --   22.27581  22.27581  22.87467  22.87467  22.87467
 Alpha virt. eigenvalues --   24.04951  82.93839  82.93839  84.49816  84.49816
 Alpha virt. eigenvalues --   84.49816  88.31990 197.58753
          Condensed to atoms (all electrons):
              1          2          3          4          5          6
     1  S   12.387776   0.325178   0.325178   0.325178   0.325178   0.325178
     2  F    0.325178   9.121401  -0.041768  -0.041768  -0.041768  -0.041768
     3  F    0.325178  -0.041768   9.121401  -0.041768  -0.041768  -0.002649
     4  F    0.325178  -0.041768  -0.041768   9.121401  -0.002649  -0.041768
     5  F    0.325178  -0.041768  -0.041768  -0.002649   9.121401  -0.041768
     6  F    0.325178  -0.041768  -0.002649  -0.041768  -0.041768   9.121401
     7  F    0.325178  -0.002649  -0.041768  -0.041768  -0.041768  -0.041768
              7
     1  S    0.325178
     2  F   -0.002649
     3  F   -0.041768
     4  F   -0.041768
     5  F   -0.041768
     6  F   -0.041768
     7  F    9.121401
 Mulliken atomic charges:
              1
     1  S    1.661155
     2  F   -0.276859
     3  F   -0.276859
     4  F   -0.276859
     5  F   -0.276859
     6  F   -0.276859
     7  F   -0.276859
 Sum of Mulliken charges=   0.00000
 Atomic charges with hydrogens summed into heavy atoms:
              1
     1  S    1.661155
     2  F   -0.276859
     3  F   -0.276859
     4  F   -0.276859
     5  F   -0.276859
     6  F   -0.276859
     7  F   -0.276859
 Sum of Mulliken charges=   0.00000
 Electronic spatial extent (au):  <R**2>=   564.8985
 Charge=     0.0000 electrons
 Dipole moment (field-independent basis, Debye):
    X=     0.0000    Y=     0.0000    Z=     0.0000  Tot=     0.0000
 Quadrupole moment (field-independent basis, Debye-Ang):
   XX=   -42.8048   YY=   -42.8048   ZZ=   -42.8048
   XY=     0.0000   XZ=     0.0000   YZ=     0.0000
 Traceless Quadrupole moment (field-independent basis, Debye-Ang):
   XX=     0.0000   YY=     0.0000   ZZ=     0.0000
   XY=     0.0000   XZ=     0.0000   YZ=     0.0000
 Octapole moment (field-independent basis, Debye-Ang**2):
  XXX=     0.0000  YYY=     0.0000  ZZZ=     0.0000  XYY=     0.0000
  XXY=     0.0000  XXZ=     0.0000  XZZ=     0.0000  YZZ=     0.0000
  YYZ=     0.0000  XYZ=     0.0000
 Hexadecapole moment (field-independent basis, Debye-Ang**3):
 XXXX=  -169.5902 YYYY=  -169.5902 ZZZZ=  -169.5902 XXXY=     0.0000
 XXXZ=     0.0000 YYYX=     0.0000 YYYZ=     0.0000 ZZZX=     0.0000
 ZZZY=     0.0000 XXYY=   -55.1617 XXZZ=   -55.1617 YYZZ=   -55.1617
 XXYZ=     0.0000 YYXZ=     0.0000 ZZXY=     0.0000
 N-N= 5.673611666242D+02 E-N=-3.504800942857D+03  KE= 9.933534110822D+02
 Symmetry AG   KE= 5.454776993437D+02
 Symmetry B1G  KE= 1.275202955188D+01
 Symmetry B2G  KE= 1.275202955188D+01
 Symmetry B3G  KE= 1.275202955188D+01
 Symmetry AU   KE= 4.297705623709D-33
 Symmetry B1U  KE= 1.365398743609D+02
 Symmetry B2U  KE= 1.365398743609D+02
 Symmetry B3U  KE= 1.365398743609D+02
 1\1\GINC-TITAN\SP\RHF\6-311G(2d,2p)\F6S1\RRL581A\24-May-2005\0\\# RHF/
 6-311G(2D,2P) 6D 10F SCF=TIGHT GFINPUT PUNCH=MO\\SF6, Big BASIS.\\0,1\
 S\F,1,1.5602262\F,1,1.5602262,2,90.\F,1,1.5602262,2,90.,3,90.,1\F,1,1.
 5602262,2,90.,3,90.,-1\F,1,1.5602262,2,90.,4,90.,1\F,1,1.5602262,3,90.
 ,4,90.,-1\\Version=SGI64-G03RevC.02\State=1-A1G\HF=-994.2197262\RMSD=3
 .041e-09\Dipole=0.,0.,0.\PG=OH [O(S1),3C4(F1.F1)]\\@


 "I COULD HAVE DONE IT IN A MUCH MORE COMPLICATED WAY"
 SAID THE RED QUEEN, IMMENSELY PROUD.

                                      -- LEWIS CARROLL
 Job cpu time:  0 days  0 hours  1 minutes  3.3 seconds.
 File lengths (MBytes):  RWF=     32 Int=      0 D2E=      0 Chk=     11 Scr=      1
 Normal termination of Gaussian 03 at Tue May 24 16:35:02 2005.
(5D15.8)
    1 Alpha MO OE=-0.92447865D+02
 0.41110327D+00 0.65494450D+00 0.12410006D-01-0.12884803D-02-0.11695311D-02
-0.73295926D-04 0.00000000D+00 0.00000000D+00 0.00000000D+00 0.00000000D+00
 0.00000000D+00 0.00000000D+00 0.00000000D+00 0.00000000D+00 0.00000000D+00
 0.00000000D+00 0.00000000D+00 0.00000000D+00 0.00000000D+00 0.00000000D+00
 0.00000000D+00 0.53024840D-03 0.53024840D-03 0.53024840D-03 0.00000000D+00
 0.00000000D+00 0.00000000D+00 0.29982648D-03 0.29982648D-03 0.29982648D-03
 0.00000000D+00 0.00000000D+00 0.00000000D+00 0.65790915D-06-0.19456261D-05
 0.00000000D+00 0.00000000D+00 0.44355267D-05 0.24530583D-04 0.00000000D+00
 0.00000000D+00-0.96567363D-05-0.11221640D-03 0.00000000D+00 0.00000000D+00
 0.51175182D-04-0.33988571D-05-0.33988571D-05-0.58368056D-06 0.00000000D+00
 0.00000000D+00 0.00000000D+00 0.82123394D-05 0.82123394D-05 0.13986891D-04
 0.00000000D+00 0.00000000D+00 0.00000000D+00 0.65790915D-06-0.19456261D-05
 0.00000000D+00 0.44355267D-05 0.00000000D+00 0.24530583D-04 0.00000000D+00
-0.96567363D-05 0.00000000D+00-0.11221640D-03 0.00000000D+00 0.51175182D-04
 0.00000000D+00-0.33988571D-05-0.58368056D-06-0.33988571D-05 0.00000000D+00
 0.00000000D+00 0.00000000D+00 0.82123394D-05 0.13986891D-04 0.82123394D-05
 0.00000000D+00 0.00000000D+00 0.00000000D+00 0.65790915D-06-0.19456260D-05
-0.44355267D-05 0.00000000D+00 0.00000000D+00 0.24530583D-04 0.96567363D-05
 0.00000000D+00 0.00000000D+00-0.11221640D-03-0.51175182D-04 0.00000000D+00
 0.00000000D+00-0.58368055D-06-0.33988571D-05-0.33988571D-05 0.00000000D+00
 0.00000000D+00 0.00000000D+00 0.13986891D-04 0.82123394D-05 0.82123394D-05
 0.00000000D+00 0.00000000D+00 0.00000000D+00 0.65790915D-06-0.19456260D-05
 0.44355267D-05 0.00000000D+00 0.00000000D+00 0.24530583D-04-0.96567363D-05
 0.00000000D+00 0.00000000D+00-0.11221640D-03 0.51175182D-04 0.00000000D+00
 0.00000000D+00-0.58368055D-06-0.33988571D-05-0.33988571D-05 0.00000000D+00
 0.00000000D+00 0.00000000D+00 0.13986891D-04 0.82123394D-05 0.82123394D-05
 0.00000000D+00 0.00000000D+00 0.00000000D+00 0.65790915D-06-0.19456261D-05
 0.00000000D+00-0.44355267D-05 0.00000000D+00 0.24530583D-04 0.00000000D+00
 0.96567363D-05 0.00000000D+00-0.11221640D-03 0.00000000D+00-0.51175182D-04
 0.00000000D+00-0.33988571D-05-0.58368056D-06-0.33988571D-05 0.00000000D+00
 0.00000000D+00 0.00000000D+00 0.82123394D-05 0.13986891D-04 0.82123394D-05
 0.00000000D+00 0.00000000D+00 0.00000000D+00 0.65790915D-06-0.19456261D-05
 0.00000000D+00 0.00000000D+00-0.44355267D-05 0.24530583D-04 0.00000000D+00
 0.00000000D+00 0.96567363D-05-0.11221640D-03 0.00000000D+00 0.00000000D+00
-0.51175182D-04-0.33988571D-05-0.33988571D-05-0.58368056D-06 0.00000000D+00
 0.00000000D+00 0.00000000D+00 0.82123394D-05 0.82123394D-05 0.13986891D-04
 0.00000000D+00 0.00000000D+00 0.00000000D+00
    2 Alpha MO OE=-0.26385593D+02
 0.72010887D-15 0.27872989D-14-0.59412324D-14-0.50502485D-13 0.16405526D-12
-0.10536313D-12 0.00000000D+00 0.00000000D+00 0.00000000D+00 0.00000000D+00
 0.00000000D+00 0.00000000D+00 0.00000000D+00 0.00000000D+00 0.00000000D+00
 0.00000000D+00 0.00000000D+00 0.00000000D+00 0.00000000D+00 0.00000000D+00
 0.00000000D+00 0.77962724D-05-0.63276344D-05-0.14686381D-05 0.00000000D+00
 0.00000000D+00 0.00000000D+00 0.52625701D-03-0.42712231D-03-0.99134693D-04
 0.00000000D+00 0.00000000D+00 0.00000000D+00-0.56049214D-01-0.48437019D-01
 0.00000000D+00 0.00000000D+00 0.12052340D-03-0.63793433D-03 0.00000000D+00
 0.00000000D+00-0.45866665D-04-0.56260703D-04 0.00000000D+00 0.00000000D+00
-0.26398189D-05 0.19661784D-04 0.21602695D-05 0.14980489D-04 0.00000000D+00
 0.00000000D+00 0.00000000D+00 0.12168032D-04 0.80839350D-04 0.69844787D-04
 0.00000000D+00 0.00000000D+00 0.00000000D+00-0.24148831D+00-0.20869113D+00
 0.00000000D+00 0.51927568D-03 0.00000000D+00-0.27485432D-02 0.00000000D+00
-0.19761675D-03 0.00000000D+00-0.24239952D-03 0.00000000D+00-0.11373673D-04
 0.00000000D+00 0.52750479D-04 0.64543511D-04 0.41269947D-04 0.00000000D+00
 0.00000000D+00 0.00000000D+00 0.17783810D-03 0.30092661D-03 0.22288467D-03
 0.00000000D+00 0.00000000D+00 0.00000000D+00 0.29753753D+00 0.25712815D+00
 0.63979908D-03 0.00000000D+00 0.00000000D+00 0.33864775D-02-0.24348342D-03
 0.00000000D+00 0.00000000D+00 0.29866022D-03-0.14013492D-04 0.00000000D+00
 0.00000000D+00-0.79524000D-04-0.60931731D-04-0.54910749D-04 0.00000000D+00
 0.00000000D+00 0.00000000D+00-0.37077140D-03-0.23505270D-03-0.25867745D-03
 0.00000000D+00 0.00000000D+00 0.00000000D+00 0.29753753D+00 0.25712815D+00
-0.63979908D-03 0.00000000D+00 0.00000000D+00 0.33864775D-02 0.24348342D-03
 0.00000000D+00 0.00000000D+00 0.29866022D-03 0.14013492D-04 0.00000000D+00
 0.00000000D+00-0.79524000D-04-0.60931731D-04-0.54910749D-04 0.00000000D+00
 0.00000000D+00 0.00000000D+00-0.37077140D-03-0.23505270D-03-0.25867745D-03
 0.00000000D+00 0.00000000D+00 0.00000000D+00-0.24148831D+00-0.20869113D+00
 0.00000000D+00-0.51927568D-03 0.00000000D+00-0.27485432D-02 0.00000000D+00
 0.19761675D-03 0.00000000D+00-0.24239952D-03 0.00000000D+00 0.11373673D-04
 0.00000000D+00 0.52750479D-04 0.64543511D-04 0.41269947D-04 0.00000000D+00
 0.00000000D+00 0.00000000D+00 0.17783810D-03 0.30092661D-03 0.22288467D-03
 0.00000000D+00 0.00000000D+00 0.00000000D+00-0.56049214D-01-0.48437019D-01
 0.00000000D+00 0.00000000D+00-0.12052340D-03-0.63793433D-03 0.00000000D+00
 0.00000000D+00 0.45866665D-04-0.56260703D-04 0.00000000D+00 0.00000000D+00
 0.26398189D-05 0.19661784D-04 0.21602695D-05 0.14980489D-04 0.00000000D+00
 0.00000000D+00 0.00000000D+00 0.12168032D-04 0.80839350D-04 0.69844787D-04
 0.00000000D+00 0.00000000D+00 0.00000000D+00
    3 Alpha MO OE=-0.26385593D+02
-0.35550112D-15-0.22982168D-14 0.10137888D-13 0.37952857D-13-0.15541953D-12
 0.80316347D-13 0.00000000D+00 0.00000000D+00 0.00000000D+00 0.00000000D+00
 0.00000000D+00 0.00000000D+00 0.00000000D+00 0.00000000D+00 0.00000000D+00
 0.00000000D+00 0.00000000D+00 0.00000000D+00 0.00000000D+00 0.00000000D+00
 0.00000000D+00-0.28053428D-05-0.53490985D-05 0.81544414D-05 0.00000000D+00
 0.00000000D+00 0.00000000D+00-0.18936374D-03-0.36107007D-03 0.55043381D-03
 0.00000000D+00 0.00000000D+00 0.00000000D+00 0.31120672D+00 0.26894089D+00
 0.00000000D+00 0.00000000D+00-0.66919212D-03 0.35420559D-02 0.00000000D+00
 0.00000000D+00 0.25466930D-03 0.31238099D-03 0.00000000D+00 0.00000000D+00
 0.14657286D-04-0.59006166D-04-0.62158239D-04-0.83177416D-04 0.00000000D+00
 0.00000000D+00 0.00000000D+00-0.26439026D-03-0.25202237D-03-0.38780503D-03
 0.00000000D+00 0.00000000D+00 0.00000000D+00-0.20414340D+00-0.17641813D+00
 0.00000000D+00 0.43897239D-03 0.00000000D+00-0.23234953D-02 0.00000000D+00
-0.16705635D-03 0.00000000D+00-0.20491369D-03 0.00000000D+00-0.96147933D-05
 0.00000000D+00 0.32949968D-04 0.54562192D-04 0.46530688D-04 0.00000000D+00
 0.00000000D+00 0.00000000D+00 0.19602011D-03 0.25438987D-03 0.14273296D-03
 0.00000000D+00 0.00000000D+00 0.00000000D+00-0.10706331D+00-0.92522757D-01
-0.23021973D-03 0.00000000D+00 0.00000000D+00-0.12185606D-02 0.87612955D-04
 0.00000000D+00 0.00000000D+00-0.10746730D-03 0.50424928D-05 0.00000000D+00
 0.00000000D+00 0.28615224D-04 0.12475479D-04 0.29208271D-04 0.00000000D+00
 0.00000000D+00 0.00000000D+00 0.13341515D-03 0.12165731D-03 0.56002252D-04
 0.00000000D+00 0.00000000D+00 0.00000000D+00-0.10706331D+00-0.92522757D-01
 0.23021973D-03 0.00000000D+00 0.00000000D+00-0.12185606D-02-0.87612955D-04
 0.00000000D+00 0.00000000D+00-0.10746730D-03-0.50424928D-05 0.00000000D+00
 0.00000000D+00 0.28615224D-04 0.12475479D-04 0.29208271D-04 0.00000000D+00
 0.00000000D+00 0.00000000D+00 0.13341515D-03 0.12165731D-03 0.56002252D-04
 0.00000000D+00 0.00000000D+00 0.00000000D+00-0.20414340D+00-0.17641813D+00
 0.00000000D+00-0.43897239D-03 0.00000000D+00-0.23234953D-02 0.00000000D+00
 0.16705635D-03 0.00000000D+00-0.20491369D-03 0.00000000D+00 0.96147933D-05
 0.00000000D+00 0.32949968D-04 0.54562192D-04 0.46530688D-04 0.00000000D+00
 0.00000000D+00 0.00000000D+00 0.19602011D-03 0.25438987D-03 0.14273296D-03
 0.00000000D+00 0.00000000D+00 0.00000000D+00 0.31120672D+00 0.26894089D+00
 0.00000000D+00 0.00000000D+00 0.66919212D-03 0.35420559D-02 0.00000000D+00
 0.00000000D+00-0.25466930D-03 0.31238099D-03 0.00000000D+00 0.00000000D+00
-0.14657286D-04-0.59006166D-04-0.62158239D-04-0.83177416D-04 0.00000000D+00
 0.00000000D+00 0.00000000D+00-0.26439026D-03-0.25202237D-03-0.38780503D-03
 0.00000000D+00 0.00000000D+00 0.00000000D+00
    4 Alpha MO OE=-0.26385568D+02
 0.00000000D+00 0.00000000D+00 0.00000000D+00 0.00000000D+00 0.00000000D+00
 0.00000000D+00 0.71457828D-05 0.00000000D+00 0.00000000D+00 0.54751203D-04
 0.00000000D+00 0.00000000D+00-0.82346027D-04 0.00000000D+00 0.00000000D+00
 0.30588087D-04 0.00000000D+00 0.00000000D+00 0.96118341D-05 0.00000000D+00
 0.00000000D+00 0.00000000D+00 0.00000000D+00 0.00000000D+00 0.00000000D+00
 0.00000000D+00 0.00000000D+00 0.00000000D+00 0.00000000D+00 0.00000000D+00
 0.00000000D+00 0.00000000D+00 0.00000000D+00 0.00000000D+00 0.00000000D+00
 0.73530042D-05 0.00000000D+00 0.00000000D+00 0.00000000D+00-0.84078557D-05
 0.00000000D+00 0.00000000D+00 0.00000000D+00 0.56989609D-04 0.00000000D+00
 0.00000000D+00 0.00000000D+00 0.00000000D+00 0.00000000D+00 0.00000000D+00
 0.78407390D-05 0.00000000D+00 0.00000000D+00 0.00000000D+00 0.00000000D+00
 0.00000000D+00-0.31692319D-04 0.00000000D+00 0.00000000D+00 0.00000000D+00
 0.73530042D-05 0.00000000D+00 0.00000000D+00 0.00000000D+00-0.84078557D-05
 0.00000000D+00 0.00000000D+00 0.00000000D+00 0.56989609D-04 0.00000000D+00
 0.00000000D+00 0.00000000D+00 0.00000000D+00 0.00000000D+00 0.78407390D-05
 0.00000000D+00 0.00000000D+00 0.00000000D+00 0.00000000D+00 0.00000000D+00
-0.31692319D-04 0.00000000D+00 0.00000000D+00 0.38728249D+00 0.33468667D+00
 0.81405168D-03 0.00000000D+00 0.00000000D+00 0.43548784D-02-0.28221330D-03
 0.00000000D+00 0.00000000D+00 0.77509768D-03 0.20239022D-03 0.00000000D+00
 0.00000000D+00-0.11805251D-03-0.68442234D-04-0.68442234D-04 0.00000000D+00
 0.00000000D+00 0.00000000D+00-0.41666989D-03-0.36693917D-03-0.36693917D-03
 0.00000000D+00 0.00000000D+00 0.00000000D+00-0.38728249D+00-0.33468667D+00
 0.81405168D-03 0.00000000D+00 0.00000000D+00-0.43548784D-02-0.28221330D-03
 0.00000000D+00 0.00000000D+00-0.77509768D-03 0.20239022D-03 0.00000000D+00
 0.00000000D+00 0.11805251D-03 0.68442234D-04 0.68442234D-04 0.00000000D+00
 0.00000000D+00 0.00000000D+00 0.41666989D-03 0.36693917D-03 0.36693917D-03
 0.00000000D+00 0.00000000D+00 0.00000000D+00 0.00000000D+00 0.00000000D+00
 0.73530042D-05 0.00000000D+00 0.00000000D+00 0.00000000D+00-0.84078557D-05
 0.00000000D+00 0.00000000D+00 0.00000000D+00 0.56989609D-04 0.00000000D+00
 0.00000000D+00 0.00000000D+00 0.00000000D+00 0.00000000D+00-0.78407390D-05
 0.00000000D+00 0.00000000D+00 0.00000000D+00 0.00000000D+00 0.00000000D+00
 0.31692319D-04 0.00000000D+00 0.00000000D+00 0.00000000D+00 0.00000000D+00
 0.73530042D-05 0.00000000D+00 0.00000000D+00 0.00000000D+00-0.84078557D-05
 0.00000000D+00 0.00000000D+00 0.00000000D+00 0.56989609D-04 0.00000000D+00
 0.00000000D+00 0.00000000D+00 0.00000000D+00 0.00000000D+00 0.00000000D+00
-0.78407390D-05 0.00000000D+00 0.00000000D+00 0.00000000D+00 0.00000000D+00
 0.00000000D+00 0.31692319D-04 0.00000000D+00
    5 Alpha MO OE=-0.26385568D+02
 0.00000000D+00 0.00000000D+00 0.00000000D+00 0.00000000D+00 0.00000000D+00
 0.00000000D+00 0.00000000D+00-0.71457828D-05 0.00000000D+00 0.00000000D+00
-0.54751203D-04 0.00000000D+00 0.00000000D+00 0.82346027D-04 0.00000000D+00
 0.00000000D+00-0.30588087D-04 0.00000000D+00 0.00000000D+00-0.96118342D-05
 0.00000000D+00 0.00000000D+00 0.00000000D+00 0.00000000D+00 0.00000000D+00
 0.00000000D+00 0.00000000D+00 0.00000000D+00 0.00000000D+00 0.00000000D+00
 0.00000000D+00 0.00000000D+00 0.00000000D+00 0.00000000D+00 0.00000000D+00
 0.00000000D+00-0.73530042D-05 0.00000000D+00 0.00000000D+00 0.00000000D+00
 0.84078557D-05 0.00000000D+00 0.00000000D+00 0.00000000D+00-0.56989609D-04
 0.00000000D+00 0.00000000D+00 0.00000000D+00 0.00000000D+00 0.00000000D+00
 0.00000000D+00-0.78407390D-05 0.00000000D+00 0.00000000D+00 0.00000000D+00
 0.00000000D+00 0.00000000D+00 0.31692319D-04 0.38728249D+00 0.33468667D+00
 0.00000000D+00-0.81405168D-03 0.00000000D+00 0.43548784D-02 0.00000000D+00
 0.28221330D-03 0.00000000D+00 0.77509768D-03 0.00000000D+00-0.20239022D-03
 0.00000000D+00-0.68442234D-04-0.11805251D-03-0.68442234D-04 0.00000000D+00
 0.00000000D+00 0.00000000D+00-0.36693917D-03-0.41666989D-03-0.36693917D-03
 0.00000000D+00 0.00000000D+00 0.00000000D+00 0.00000000D+00 0.00000000D+00
 0.00000000D+00-0.73530042D-05 0.00000000D+00 0.00000000D+00 0.00000000D+00
 0.84078557D-05 0.00000000D+00 0.00000000D+00 0.00000000D+00-0.56989609D-04
 0.00000000D+00 0.00000000D+00 0.00000000D+00 0.00000000D+00 0.78407390D-05
 0.00000000D+00 0.00000000D+00 0.00000000D+00 0.00000000D+00 0.00000000D+00
-0.31692319D-04 0.00000000D+00 0.00000000D+00 0.00000000D+00 0.00000000D+00
 0.00000000D+00-0.73530042D-05 0.00000000D+00 0.00000000D+00 0.00000000D+00
 0.84078557D-05 0.00000000D+00 0.00000000D+00 0.00000000D+00-0.56989609D-04
 0.00000000D+00 0.00000000D+00 0.00000000D+00 0.00000000D+00-0.78407390D-05
 0.00000000D+00 0.00000000D+00 0.00000000D+00 0.00000000D+00 0.00000000D+00
 0.31692319D-04 0.00000000D+00 0.00000000D+00-0.38728249D+00-0.33468667D+00
 0.00000000D+00-0.81405168D-03 0.00000000D+00-0.43548784D-02 0.00000000D+00
 0.28221330D-03 0.00000000D+00-0.77509768D-03 0.00000000D+00-0.20239022D-03
 0.00000000D+00 0.68442234D-04 0.11805251D-03 0.68442234D-04 0.00000000D+00
 0.00000000D+00 0.00000000D+00 0.36693917D-03 0.41666989D-03 0.36693917D-03
 0.00000000D+00 0.00000000D+00 0.00000000D+00 0.00000000D+00 0.00000000D+00
 0.00000000D+00-0.73530042D-05 0.00000000D+00 0.00000000D+00 0.00000000D+00
 0.84078557D-05 0.00000000D+00 0.00000000D+00 0.00000000D+00-0.56989609D-04
 0.00000000D+00 0.00000000D+00 0.00000000D+00 0.00000000D+00 0.00000000D+00
 0.00000000D+00 0.78407390D-05 0.00000000D+00 0.00000000D+00 0.00000000D+00
 0.00000000D+00 0.00000000D+00-0.31692319D-04
    6 Alpha MO OE=-0.26385568D+02
 0.00000000D+00 0.00000000D+00 0.00000000D+00 0.00000000D+00 0.00000000D+00
 0.00000000D+00 0.00000000D+00 0.00000000D+00-0.71457828D-05 0.00000000D+00
 0.00000000D+00-0.54751203D-04 0.00000000D+00 0.00000000D+00 0.82346027D-04
 0.00000000D+00 0.00000000D+00-0.30588087D-04 0.00000000D+00 0.00000000D+00
-0.96118342D-05 0.00000000D+00 0.00000000D+00 0.00000000D+00 0.00000000D+00
 0.00000000D+00 0.00000000D+00 0.00000000D+00 0.00000000D+00 0.00000000D+00
 0.00000000D+00 0.00000000D+00 0.00000000D+00 0.38728249D+00 0.33468667D+00
 0.00000000D+00 0.00000000D+00-0.81405168D-03 0.43548784D-02 0.00000000D+00
 0.00000000D+00 0.28221330D-03 0.77509768D-03 0.00000000D+00 0.00000000D+00
-0.20239022D-03-0.68442234D-04-0.68442234D-04-0.11805251D-03 0.00000000D+00
 0.00000000D+00 0.00000000D+00-0.36693917D-03-0.36693917D-03-0.41666989D-03
 0.00000000D+00 0.00000000D+00 0.00000000D+00 0.00000000D+00 0.00000000D+00
 0.00000000D+00 0.00000000D+00-0.73530042D-05 0.00000000D+00 0.00000000D+00
 0.00000000D+00 0.84078557D-05 0.00000000D+00 0.00000000D+00 0.00000000D+00
-0.56989609D-04 0.00000000D+00 0.00000000D+00 0.00000000D+00 0.00000000D+00
 0.00000000D+00-0.78407390D-05 0.00000000D+00 0.00000000D+00 0.00000000D+00
 0.00000000D+00 0.00000000D+00 0.31692319D-04 0.00000000D+00 0.00000000D+00
 0.00000000D+00 0.00000000D+00-0.73530042D-05 0.00000000D+00 0.00000000D+00
 0.00000000D+00 0.84078557D-05 0.00000000D+00 0.00000000D+00 0.00000000D+00
-0.56989609D-04 0.00000000D+00 0.00000000D+00 0.00000000D+00 0.00000000D+00
 0.78407390D-05 0.00000000D+00 0.00000000D+00 0.00000000D+00 0.00000000D+00
 0.00000000D+00-0.31692319D-04 0.00000000D+00 0.00000000D+00 0.00000000D+00
 0.00000000D+00 0.00000000D+00-0.73530042D-05 0.00000000D+00 0.00000000D+00
 0.00000000D+00 0.84078557D-05 0.00000000D+00 0.00000000D+00 0.00000000D+00
-0.56989609D-04 0.00000000D+00 0.00000000D+00 0.00000000D+00 0.00000000D+00
-0.78407390D-05 0.00000000D+00 0.00000000D+00 0.00000000D+00 0.00000000D+00
 0.00000000D+00 0.31692319D-04 0.00000000D+00 0.00000000D+00 0.00000000D+00
 0.00000000D+00 0.00000000D+00-0.73530042D-05 0.00000000D+00 0.00000000D+00
 0.00000000D+00 0.84078557D-05 0.00000000D+00 0.00000000D+00 0.00000000D+00
-0.56989609D-04 0.00000000D+00 0.00000000D+00 0.00000000D+00 0.00000000D+00
 0.00000000D+00 0.78407390D-05 0.00000000D+00 0.00000000D+00 0.00000000D+00
 0.00000000D+00 0.00000000D+00-0.31692319D-04-0.38728249D+00-0.33468667D+00
 0.00000000D+00 0.00000000D+00-0.81405168D-03-0.43548784D-02 0.00000000D+00
 0.00000000D+00 0.28221330D-03-0.77509768D-03 0.00000000D+00 0.00000000D+00
-0.20239022D-03 0.68442234D-04 0.68442234D-04 0.11805251D-03 0.00000000D+00
 0.00000000D+00 0.00000000D+00 0.36693917D-03 0.36693917D-03 0.41666989D-03
 0.00000000D+00 0.00000000D+00 0.00000000D+00
    7 Alpha MO OE=-0.26385523D+02
 0.47498014D-05 0.17277038D-04-0.48847174D-04-0.28466306D-03 0.10597010D-02
-0.96356877D-03 0.00000000D+00 0.00000000D+00 0.00000000D+00 0.00000000D+00
 0.00000000D+00 0.00000000D+00 0.00000000D+00 0.00000000D+00 0.00000000D+00
 0.00000000D+00 0.00000000D+00 0.00000000D+00 0.00000000D+00 0.00000000D+00
 0.00000000D+00-0.19588142D-03-0.19588142D-03-0.19588142D-03 0.00000000D+00
 0.00000000D+00 0.00000000D+00-0.13939069D-03-0.13939069D-03-0.13939069D-03
 0.00000000D+00 0.00000000D+00 0.00000000D+00 0.22360283D+00 0.19321496D+00
 0.00000000D+00 0.00000000D+00-0.46770451D-03 0.25213715D-02 0.00000000D+00
 0.00000000D+00 0.17554269D-03 0.73468584D-03 0.00000000D+00 0.00000000D+00
-0.15079316D-03-0.61147808D-04-0.61147808D-04-0.80314633D-04 0.00000000D+00
 0.00000000D+00 0.00000000D+00-0.24562670D-03-0.24562670D-03-0.31996145D-03
 0.00000000D+00 0.00000000D+00 0.00000000D+00 0.22360283D+00 0.19321496D+00
 0.00000000D+00-0.46770451D-03 0.00000000D+00 0.25213715D-02 0.00000000D+00
 0.17554269D-03 0.00000000D+00 0.73468584D-03 0.00000000D+00-0.15079316D-03
 0.00000000D+00-0.61147808D-04-0.80314633D-04-0.61147808D-04 0.00000000D+00
 0.00000000D+00 0.00000000D+00-0.24562670D-03-0.31996145D-03-0.24562670D-03
 0.00000000D+00 0.00000000D+00 0.00000000D+00 0.22360283D+00 0.19321496D+00
 0.46770451D-03 0.00000000D+00 0.00000000D+00 0.25213715D-02-0.17554269D-03
 0.00000000D+00 0.00000000D+00 0.73468584D-03 0.15079316D-03 0.00000000D+00
 0.00000000D+00-0.80314633D-04-0.61147808D-04-0.61147808D-04 0.00000000D+00
 0.00000000D+00 0.00000000D+00-0.31996145D-03-0.24562670D-03-0.24562670D-03
 0.00000000D+00 0.00000000D+00 0.00000000D+00 0.22360283D+00 0.19321496D+00
-0.46770451D-03 0.00000000D+00 0.00000000D+00 0.25213715D-02 0.17554269D-03
 0.00000000D+00 0.00000000D+00 0.73468584D-03-0.15079316D-03 0.00000000D+00
 0.00000000D+00-0.80314633D-04-0.61147808D-04-0.61147808D-04 0.00000000D+00
 0.00000000D+00 0.00000000D+00-0.31996145D-03-0.24562670D-03-0.24562670D-03
 0.00000000D+00 0.00000000D+00 0.00000000D+00 0.22360283D+00 0.19321496D+00
 0.00000000D+00 0.46770451D-03 0.00000000D+00 0.25213715D-02 0.00000000D+00
-0.17554269D-03 0.00000000D+00 0.73468584D-03 0.00000000D+00 0.15079316D-03
 0.00000000D+00-0.61147808D-04-0.80314633D-04-0.61147808D-04 0.00000000D+00
 0.00000000D+00 0.00000000D+00-0.24562670D-03-0.31996145D-03-0.24562670D-03
 0.00000000D+00 0.00000000D+00 0.00000000D+00 0.22360283D+00 0.19321496D+00
 0.00000000D+00 0.00000000D+00 0.46770451D-03 0.25213715D-02 0.00000000D+00
 0.00000000D+00-0.17554269D-03 0.73468584D-03 0.00000000D+00 0.00000000D+00
 0.15079316D-03-0.61147808D-04-0.61147808D-04-0.80314633D-04 0.00000000D+00
 0.00000000D+00 0.00000000D+00-0.24562670D-03-0.24562670D-03-0.31996145D-03
 0.00000000D+00 0.00000000D+00 0.00000000D+00
    8 Alpha MO OE=-0.93887469D+01
-0.11988264D+00-0.32541861D+00 0.53642456D+00 0.58006124D+00 0.39511574D-01
 0.26488282D-02 0.00000000D+00 0.00000000D+00 0.00000000D+00 0.00000000D+00
 0.00000000D+00 0.00000000D+00 0.00000000D+00 0.00000000D+00 0.00000000D+00
 0.00000000D+00 0.00000000D+00 0.00000000D+00 0.00000000D+00 0.00000000D+00
 0.00000000D+00-0.13365816D-02-0.13365816D-02-0.13365816D-02 0.00000000D+00
 0.00000000D+00 0.00000000D+00-0.10127505D-01-0.10127505D-01-0.10127505D-01
 0.00000000D+00 0.00000000D+00 0.00000000D+00-0.63712265D-04-0.44144304D-04
 0.00000000D+00 0.00000000D+00-0.21802044D-03-0.53992726D-03 0.00000000D+00
 0.00000000D+00-0.13001323D-05 0.38483222D-02 0.00000000D+00 0.00000000D+00
-0.18489555D-02 0.60809902D-04 0.60809902D-04 0.48097568D-04 0.00000000D+00
 0.00000000D+00 0.00000000D+00-0.28551316D-03-0.28551316D-03-0.32368049D-03
 0.00000000D+00 0.00000000D+00 0.00000000D+00-0.63712265D-04-0.44144304D-04
 0.00000000D+00-0.21802044D-03 0.00000000D+00-0.53992726D-03 0.00000000D+00
-0.13001323D-05 0.00000000D+00 0.38483222D-02 0.00000000D+00-0.18489555D-02
 0.00000000D+00 0.60809902D-04 0.48097568D-04 0.60809902D-04 0.00000000D+00
 0.00000000D+00 0.00000000D+00-0.28551316D-03-0.32368049D-03-0.28551316D-03
 0.00000000D+00 0.00000000D+00 0.00000000D+00-0.63712265D-04-0.44144304D-04
 0.21802044D-03 0.00000000D+00 0.00000000D+00-0.53992726D-03 0.13001323D-05
 0.00000000D+00 0.00000000D+00 0.38483222D-02 0.18489555D-02 0.00000000D+00
 0.00000000D+00 0.48097568D-04 0.60809902D-04 0.60809902D-04 0.00000000D+00
 0.00000000D+00 0.00000000D+00-0.32368049D-03-0.28551316D-03-0.28551316D-03
 0.00000000D+00 0.00000000D+00 0.00000000D+00-0.63712265D-04-0.44144304D-04
-0.21802044D-03 0.00000000D+00 0.00000000D+00-0.53992726D-03-0.13001323D-05
 0.00000000D+00 0.00000000D+00 0.38483222D-02-0.18489555D-02 0.00000000D+00
 0.00000000D+00 0.48097568D-04 0.60809902D-04 0.60809902D-04 0.00000000D+00
 0.00000000D+00 0.00000000D+00-0.32368049D-03-0.28551316D-03-0.28551316D-03
 0.00000000D+00 0.00000000D+00 0.00000000D+00-0.63712265D-04-0.44144304D-04
 0.00000000D+00 0.21802044D-03 0.00000000D+00-0.53992726D-03 0.00000000D+00
 0.13001323D-05 0.00000000D+00 0.38483222D-02 0.00000000D+00 0.18489555D-02
 0.00000000D+00 0.60809902D-04 0.48097568D-04 0.60809902D-04 0.00000000D+00
 0.00000000D+00 0.00000000D+00-0.28551316D-03-0.32368049D-03-0.28551316D-03
 0.00000000D+00 0.00000000D+00 0.00000000D+00-0.63712265D-04-0.44144304D-04
 0.00000000D+00 0.00000000D+00 0.21802044D-03-0.53992726D-03 0.00000000D+00
 0.00000000D+00 0.13001323D-05 0.38483222D-02 0.00000000D+00 0.00000000D+00
 0.18489555D-02 0.60809902D-04 0.60809902D-04 0.48097568D-04 0.00000000D+00
 0.00000000D+00 0.00000000D+00-0.28551316D-03-0.28551316D-03-0.32368049D-03
 0.00000000D+00 0.00000000D+00 0.00000000D+00
    9 Alpha MO OE=-0.70779145D+01
 0.00000000D+00 0.00000000D+00 0.00000000D+00 0.00000000D+00 0.00000000D+00
 0.00000000D+00 0.00000000D+00 0.37682935D+00 0.00000000D+00 0.00000000D+00
 0.71490802D+00 0.00000000D+00 0.00000000D+00 0.45061289D-01 0.00000000D+00
 0.00000000D+00-0.55038677D-02 0.00000000D+00 0.00000000D+00-0.34884676D-04
 0.00000000D+00 0.00000000D+00 0.00000000D+00 0.00000000D+00 0.00000000D+00
 0.00000000D+00 0.00000000D+00 0.00000000D+00 0.00000000D+00 0.00000000D+00
 0.00000000D+00 0.00000000D+00 0.00000000D+00 0.00000000D+00 0.00000000D+00
 0.00000000D+00 0.59997549D-04 0.00000000D+00 0.00000000D+00 0.00000000D+00
 0.13484057D-03 0.00000000D+00 0.00000000D+00 0.00000000D+00 0.31097126D-03
 0.00000000D+00 0.00000000D+00 0.00000000D+00 0.00000000D+00 0.00000000D+00
 0.00000000D+00-0.11258351D-04 0.00000000D+00 0.00000000D+00 0.00000000D+00
 0.00000000D+00 0.00000000D+00-0.13953422D-03-0.17532680D-03-0.23298339D-03
 0.00000000D+00-0.42311773D-03 0.00000000D+00 0.20291694D-03 0.00000000D+00
-0.67293116D-03 0.00000000D+00 0.24741350D-02 0.00000000D+00-0.13001613D-02
 0.00000000D+00 0.26998290D-04 0.71514224D-04 0.26998290D-04 0.00000000D+00
 0.00000000D+00 0.00000000D+00-0.27822996D-03 0.18184381D-03-0.27822996D-03
 0.00000000D+00 0.00000000D+00 0.00000000D+00 0.00000000D+00 0.00000000D+00
 0.00000000D+00 0.59997549D-04 0.00000000D+00 0.00000000D+00 0.00000000D+00
 0.13484057D-03 0.00000000D+00 0.00000000D+00 0.00000000D+00 0.31097126D-03
 0.00000000D+00 0.00000000D+00 0.00000000D+00 0.00000000D+00 0.11258351D-04
 0.00000000D+00 0.00000000D+00 0.00000000D+00 0.00000000D+00 0.00000000D+00
 0.13953422D-03 0.00000000D+00 0.00000000D+00 0.00000000D+00 0.00000000D+00
 0.00000000D+00 0.59997549D-04 0.00000000D+00 0.00000000D+00 0.00000000D+00
 0.13484057D-03 0.00000000D+00 0.00000000D+00 0.00000000D+00 0.31097126D-03
 0.00000000D+00 0.00000000D+00 0.00000000D+00 0.00000000D+00-0.11258351D-04
 0.00000000D+00 0.00000000D+00 0.00000000D+00 0.00000000D+00 0.00000000D+00
-0.13953422D-03 0.00000000D+00 0.00000000D+00 0.17532680D-03 0.23298339D-03
 0.00000000D+00-0.42311773D-03 0.00000000D+00-0.20291694D-03 0.00000000D+00
-0.67293116D-03 0.00000000D+00-0.24741350D-02 0.00000000D+00-0.13001613D-02
 0.00000000D+00-0.26998290D-04-0.71514224D-04-0.26998290D-04 0.00000000D+00
 0.00000000D+00 0.00000000D+00 0.27822996D-03-0.18184381D-03 0.27822996D-03
 0.00000000D+00 0.00000000D+00 0.00000000D+00 0.00000000D+00 0.00000000D+00
 0.00000000D+00 0.59997549D-04 0.00000000D+00 0.00000000D+00 0.00000000D+00
 0.13484057D-03 0.00000000D+00 0.00000000D+00 0.00000000D+00 0.31097126D-03
 0.00000000D+00 0.00000000D+00 0.00000000D+00 0.00000000D+00 0.00000000D+00
 0.00000000D+00 0.11258351D-04 0.00000000D+00 0.00000000D+00 0.00000000D+00
 0.00000000D+00 0.00000000D+00 0.13953422D-03
   10 Alpha MO OE=-0.70779145D+01
 0.00000000D+00 0.00000000D+00 0.00000000D+00 0.00000000D+00 0.00000000D+00
 0.00000000D+00 0.00000000D+00 0.00000000D+00 0.37682935D+00 0.00000000D+00
 0.00000000D+00 0.71490802D+00 0.00000000D+00 0.00000000D+00 0.45061289D-01
 0.00000000D+00 0.00000000D+00-0.55038677D-02 0.00000000D+00 0.00000000D+00
-0.34884676D-04 0.00000000D+00 0.00000000D+00 0.00000000D+00 0.00000000D+00
 0.00000000D+00 0.00000000D+00 0.00000000D+00 0.00000000D+00 0.00000000D+00
 0.00000000D+00 0.00000000D+00 0.00000000D+00-0.17532680D-03-0.23298339D-03
 0.00000000D+00 0.00000000D+00-0.42311773D-03 0.20291694D-03 0.00000000D+00
 0.00000000D+00-0.67293116D-03 0.24741350D-02 0.00000000D+00 0.00000000D+00
-0.13001613D-02 0.26998290D-04 0.26998290D-04 0.71514224D-04 0.00000000D+00
 0.00000000D+00 0.00000000D+00-0.27822996D-03-0.27822996D-03 0.18184381D-03
 0.00000000D+00 0.00000000D+00 0.00000000D+00 0.00000000D+00 0.00000000D+00
 0.00000000D+00 0.00000000D+00 0.59997549D-04 0.00000000D+00 0.00000000D+00
 0.00000000D+00 0.13484057D-03 0.00000000D+00 0.00000000D+00 0.00000000D+00
 0.31097126D-03 0.00000000D+00 0.00000000D+00 0.00000000D+00 0.00000000D+00
 0.00000000D+00-0.11258351D-04 0.00000000D+00 0.00000000D+00 0.00000000D+00
 0.00000000D+00 0.00000000D+00-0.13953422D-03 0.00000000D+00 0.00000000D+00
 0.00000000D+00 0.00000000D+00 0.59997549D-04 0.00000000D+00 0.00000000D+00
 0.00000000D+00 0.13484057D-03 0.00000000D+00 0.00000000D+00 0.00000000D+00
 0.31097126D-03 0.00000000D+00 0.00000000D+00 0.00000000D+00 0.00000000D+00
 0.11258351D-04 0.00000000D+00 0.00000000D+00 0.00000000D+00 0.00000000D+00
 0.00000000D+00 0.13953422D-03 0.00000000D+00 0.00000000D+00 0.00000000D+00
 0.00000000D+00 0.00000000D+00 0.59997549D-04 0.00000000D+00 0.00000000D+00
 0.00000000D+00 0.13484057D-03 0.00000000D+00 0.00000000D+00 0.00000000D+00
 0.31097126D-03 0.00000000D+00 0.00000000D+00 0.00000000D+00 0.00000000D+00
-0.11258351D-04 0.00000000D+00 0.00000000D+00 0.00000000D+00 0.00000000D+00
 0.00000000D+00-0.13953422D-03 0.00000000D+00 0.00000000D+00 0.00000000D+00
 0.00000000D+00 0.00000000D+00 0.59997549D-04 0.00000000D+00 0.00000000D+00
 0.00000000D+00 0.13484057D-03 0.00000000D+00 0.00000000D+00 0.00000000D+00
 0.31097126D-03 0.00000000D+00 0.00000000D+00 0.00000000D+00 0.00000000D+00
 0.00000000D+00 0.11258351D-04 0.00000000D+00 0.00000000D+00 0.00000000D+00
 0.00000000D+00 0.00000000D+00 0.13953422D-03 0.17532680D-03 0.23298339D-03
 0.00000000D+00 0.00000000D+00-0.42311773D-03-0.20291694D-03 0.00000000D+00
 0.00000000D+00-0.67293116D-03-0.24741350D-02 0.00000000D+00 0.00000000D+00
-0.13001613D-02-0.26998290D-04-0.26998290D-04-0.71514224D-04 0.00000000D+00
 0.00000000D+00 0.00000000D+00 0.27822996D-03 0.27822996D-03-0.18184381D-03
 0.00000000D+00 0.00000000D+00 0.00000000D+00
   11 Alpha MO OE=-0.70779145D+01
 0.00000000D+00 0.00000000D+00 0.00000000D+00 0.00000000D+00 0.00000000D+00
 0.00000000D+00 0.37682935D+00 0.00000000D+00 0.00000000D+00 0.71490802D+00
 0.00000000D+00 0.00000000D+00 0.45061289D-01 0.00000000D+00 0.00000000D+00
-0.55038677D-02 0.00000000D+00 0.00000000D+00-0.34884676D-04 0.00000000D+00
 0.00000000D+00 0.00000000D+00 0.00000000D+00 0.00000000D+00 0.00000000D+00
 0.00000000D+00 0.00000000D+00 0.00000000D+00 0.00000000D+00 0.00000000D+00
 0.00000000D+00 0.00000000D+00 0.00000000D+00 0.00000000D+00 0.00000000D+00
 0.59997549D-04 0.00000000D+00 0.00000000D+00 0.00000000D+00 0.13484057D-03
 0.00000000D+00 0.00000000D+00 0.00000000D+00 0.31097126D-03 0.00000000D+00
 0.00000000D+00 0.00000000D+00 0.00000000D+00 0.00000000D+00 0.00000000D+00
-0.11258351D-04 0.00000000D+00 0.00000000D+00 0.00000000D+00 0.00000000D+00
 0.00000000D+00-0.13953422D-03 0.00000000D+00 0.00000000D+00 0.00000000D+00
 0.59997549D-04 0.00000000D+00 0.00000000D+00 0.00000000D+00 0.13484057D-03
 0.00000000D+00 0.00000000D+00 0.00000000D+00 0.31097126D-03 0.00000000D+00
 0.00000000D+00 0.00000000D+00 0.00000000D+00 0.00000000D+00-0.11258351D-04
 0.00000000D+00 0.00000000D+00 0.00000000D+00 0.00000000D+00 0.00000000D+00
-0.13953422D-03 0.00000000D+00 0.00000000D+00 0.17532680D-03 0.23298339D-03
-0.42311773D-03 0.00000000D+00 0.00000000D+00-0.20291694D-03-0.67293116D-03
 0.00000000D+00 0.00000000D+00-0.24741350D-02-0.13001613D-02 0.00000000D+00
 0.00000000D+00-0.71514224D-04-0.26998290D-04-0.26998290D-04 0.00000000D+00
 0.00000000D+00 0.00000000D+00-0.18184381D-03 0.27822996D-03 0.27822996D-03
 0.00000000D+00 0.00000000D+00 0.00000000D+00-0.17532680D-03-0.23298339D-03
-0.42311773D-03 0.00000000D+00 0.00000000D+00 0.20291694D-03-0.67293116D-03
 0.00000000D+00 0.00000000D+00 0.24741350D-02-0.13001613D-02 0.00000000D+00
 0.00000000D+00 0.71514224D-04 0.26998290D-04 0.26998290D-04 0.00000000D+00
 0.00000000D+00 0.00000000D+00 0.18184381D-03-0.27822996D-03-0.27822996D-03
 0.00000000D+00 0.00000000D+00 0.00000000D+00 0.00000000D+00 0.00000000D+00
 0.59997549D-04 0.00000000D+00 0.00000000D+00 0.00000000D+00 0.13484057D-03
 0.00000000D+00 0.00000000D+00 0.00000000D+00 0.31097126D-03 0.00000000D+00
 0.00000000D+00 0.00000000D+00 0.00000000D+00 0.00000000D+00 0.11258351D-04
 0.00000000D+00 0.00000000D+00 0.00000000D+00 0.00000000D+00 0.00000000D+00
 0.13953422D-03 0.00000000D+00 0.00000000D+00 0.00000000D+00 0.00000000D+00
 0.59997549D-04 0.00000000D+00 0.00000000D+00 0.00000000D+00 0.13484057D-03
 0.00000000D+00 0.00000000D+00 0.00000000D+00 0.31097126D-03 0.00000000D+00
 0.00000000D+00 0.00000000D+00 0.00000000D+00 0.00000000D+00 0.00000000D+00
 0.11258351D-04 0.00000000D+00 0.00000000D+00 0.00000000D+00 0.00000000D+00
 0.00000000D+00 0.13953422D-03 0.00000000D+00
   12 Alpha MO OE=-0.18435637D+01
 0.16394382D-01 0.47062246D-01-0.97081014D-01-0.19001269D+00 0.37674246D+00
-0.29075769D-01 0.00000000D+00 0.00000000D+00 0.00000000D+00 0.00000000D+00
 0.00000000D+00 0.00000000D+00 0.00000000D+00 0.00000000D+00 0.00000000D+00
 0.00000000D+00 0.00000000D+00 0.00000000D+00 0.00000000D+00 0.00000000D+00
 0.00000000D+00-0.99722342D-02-0.99722342D-02-0.99722342D-02 0.00000000D+00
 0.00000000D+00 0.00000000D+00-0.12663866D-01-0.12663866D-01-0.12663866D-01
 0.00000000D+00 0.00000000D+00 0.00000000D+00-0.42478818D-01-0.67463962D-01
 0.00000000D+00 0.00000000D+00-0.19023687D-01 0.19947978D+00 0.00000000D+00
 0.00000000D+00-0.36751875D-01 0.14910712D+00 0.00000000D+00 0.00000000D+00
-0.30346891D-01 0.27202632D-02 0.27202632D-02 0.44563745D-02 0.00000000D+00
 0.00000000D+00 0.00000000D+00 0.41597924D-02 0.41597924D-02 0.16168186D-01
 0.00000000D+00 0.00000000D+00 0.00000000D+00-0.42478818D-01-0.67463962D-01
 0.00000000D+00-0.19023687D-01 0.00000000D+00 0.19947978D+00 0.00000000D+00
-0.36751875D-01 0.00000000D+00 0.14910712D+00 0.00000000D+00-0.30346891D-01
 0.00000000D+00 0.27202632D-02 0.44563745D-02 0.27202632D-02 0.00000000D+00
 0.00000000D+00 0.00000000D+00 0.41597924D-02 0.16168186D-01 0.41597924D-02
 0.00000000D+00 0.00000000D+00 0.00000000D+00-0.42478818D-01-0.67463962D-01
 0.19023687D-01 0.00000000D+00 0.00000000D+00 0.19947978D+00 0.36751875D-01
 0.00000000D+00 0.00000000D+00 0.14910712D+00 0.30346891D-01 0.00000000D+00
 0.00000000D+00 0.44563745D-02 0.27202632D-02 0.27202632D-02 0.00000000D+00
 0.00000000D+00 0.00000000D+00 0.16168186D-01 0.41597924D-02 0.41597924D-02
 0.00000000D+00 0.00000000D+00 0.00000000D+00-0.42478818D-01-0.67463962D-01
-0.19023687D-01 0.00000000D+00 0.00000000D+00 0.19947978D+00-0.36751875D-01
 0.00000000D+00 0.00000000D+00 0.14910712D+00-0.30346891D-01 0.00000000D+00
 0.00000000D+00 0.44563745D-02 0.27202632D-02 0.27202632D-02 0.00000000D+00
 0.00000000D+00 0.00000000D+00 0.16168186D-01 0.41597924D-02 0.41597924D-02
 0.00000000D+00 0.00000000D+00 0.00000000D+00-0.42478818D-01-0.67463962D-01
 0.00000000D+00 0.19023687D-01 0.00000000D+00 0.19947978D+00 0.00000000D+00
 0.36751875D-01 0.00000000D+00 0.14910712D+00 0.00000000D+00 0.30346891D-01
 0.00000000D+00 0.27202632D-02 0.44563745D-02 0.27202632D-02 0.00000000D+00
 0.00000000D+00 0.00000000D+00 0.41597924D-02 0.16168186D-01 0.41597924D-02
 0.00000000D+00 0.00000000D+00 0.00000000D+00-0.42478818D-01-0.67463962D-01
 0.00000000D+00 0.00000000D+00 0.19023687D-01 0.19947978D+00 0.00000000D+00
 0.00000000D+00 0.36751875D-01 0.14910712D+00 0.00000000D+00 0.00000000D+00
 0.30346891D-01 0.27202632D-02 0.27202632D-02 0.44563745D-02 0.00000000D+00
 0.00000000D+00 0.00000000D+00 0.41597924D-02 0.41597924D-02 0.16168186D-01
 0.00000000D+00 0.00000000D+00 0.00000000D+00
   13 Alpha MO OE=-0.17108413D+01
 0.00000000D+00 0.00000000D+00 0.00000000D+00 0.00000000D+00 0.00000000D+00
 0.00000000D+00 0.31791995D-01 0.00000000D+00 0.00000000D+00 0.66853596D-01
 0.00000000D+00 0.00000000D+00-0.92085815D-01 0.00000000D+00 0.00000000D+00
-0.74115571D-01 0.00000000D+00 0.00000000D+00-0.65921422D-02 0.00000000D+00
 0.00000000D+00 0.00000000D+00 0.00000000D+00 0.00000000D+00 0.00000000D+00
 0.00000000D+00 0.00000000D+00 0.00000000D+00 0.00000000D+00 0.00000000D+00
 0.00000000D+00 0.00000000D+00 0.00000000D+00 0.00000000D+00 0.00000000D+00
-0.60671563D-02 0.00000000D+00 0.00000000D+00 0.00000000D+00-0.11600413D-01
 0.00000000D+00 0.00000000D+00 0.00000000D+00 0.70554953D-03 0.00000000D+00
 0.00000000D+00 0.00000000D+00 0.00000000D+00 0.00000000D+00 0.00000000D+00
 0.84675220D-03 0.00000000D+00 0.00000000D+00 0.00000000D+00 0.00000000D+00
 0.00000000D+00-0.49576049D-03 0.00000000D+00 0.00000000D+00 0.00000000D+00
-0.60671563D-02 0.00000000D+00 0.00000000D+00 0.00000000D+00-0.11600413D-01
 0.00000000D+00 0.00000000D+00 0.00000000D+00 0.70554953D-03 0.00000000D+00
 0.00000000D+00 0.00000000D+00 0.00000000D+00 0.00000000D+00 0.84675220D-03
 0.00000000D+00 0.00000000D+00 0.00000000D+00 0.00000000D+00 0.00000000D+00
-0.49576049D-03 0.00000000D+00 0.00000000D+00-0.85008906D-01-0.13368317D+00
 0.20017186D-01 0.00000000D+00 0.00000000D+00 0.40606390D+00 0.44563773D-01
 0.00000000D+00 0.00000000D+00 0.26152258D+00 0.36726789D-01 0.00000000D+00
 0.00000000D+00 0.83516203D-02 0.78777152D-02 0.78777152D-02 0.00000000D+00
 0.00000000D+00 0.00000000D+00 0.39707936D-01 0.13758124D-01 0.13758124D-01
 0.00000000D+00 0.00000000D+00 0.00000000D+00 0.85008906D-01 0.13368317D+00
 0.20017186D-01 0.00000000D+00 0.00000000D+00-0.40606390D+00 0.44563773D-01
 0.00000000D+00 0.00000000D+00-0.26152258D+00 0.36726789D-01 0.00000000D+00
 0.00000000D+00-0.83516203D-02-0.78777152D-02-0.78777152D-02 0.00000000D+00
 0.00000000D+00 0.00000000D+00-0.39707936D-01-0.13758124D-01-0.13758124D-01
 0.00000000D+00 0.00000000D+00 0.00000000D+00 0.00000000D+00 0.00000000D+00
-0.60671563D-02 0.00000000D+00 0.00000000D+00 0.00000000D+00-0.11600413D-01
 0.00000000D+00 0.00000000D+00 0.00000000D+00 0.70554953D-03 0.00000000D+00
 0.00000000D+00 0.00000000D+00 0.00000000D+00 0.00000000D+00-0.84675220D-03
 0.00000000D+00 0.00000000D+00 0.00000000D+00 0.00000000D+00 0.00000000D+00
 0.49576049D-03 0.00000000D+00 0.00000000D+00 0.00000000D+00 0.00000000D+00
-0.60671563D-02 0.00000000D+00 0.00000000D+00 0.00000000D+00-0.11600413D-01
 0.00000000D+00 0.00000000D+00 0.00000000D+00 0.70554953D-03 0.00000000D+00
 0.00000000D+00 0.00000000D+00 0.00000000D+00 0.00000000D+00 0.00000000D+00
-0.84675220D-03 0.00000000D+00 0.00000000D+00 0.00000000D+00 0.00000000D+00
 0.00000000D+00 0.49576049D-03 0.00000000D+00
   14 Alpha MO OE=-0.17108413D+01
 0.00000000D+00 0.00000000D+00 0.00000000D+00 0.00000000D+00 0.00000000D+00
 0.00000000D+00 0.00000000D+00 0.00000000D+00-0.31791995D-01 0.00000000D+00
 0.00000000D+00-0.66853596D-01 0.00000000D+00 0.00000000D+00 0.92085815D-01
 0.00000000D+00 0.00000000D+00 0.74115571D-01 0.00000000D+00 0.00000000D+00
 0.65921422D-02 0.00000000D+00 0.00000000D+00 0.00000000D+00 0.00000000D+00
 0.00000000D+00 0.00000000D+00 0.00000000D+00 0.00000000D+00 0.00000000D+00
 0.00000000D+00 0.00000000D+00 0.00000000D+00-0.85008906D-01-0.13368317D+00
 0.00000000D+00 0.00000000D+00-0.20017186D-01 0.40606390D+00 0.00000000D+00
 0.00000000D+00-0.44563773D-01 0.26152258D+00 0.00000000D+00 0.00000000D+00
-0.36726789D-01 0.78777152D-02 0.78777152D-02 0.83516203D-02 0.00000000D+00
 0.00000000D+00 0.00000000D+00 0.13758124D-01 0.13758124D-01 0.39707936D-01
 0.00000000D+00 0.00000000D+00 0.00000000D+00 0.00000000D+00 0.00000000D+00
 0.00000000D+00 0.00000000D+00 0.60671563D-02 0.00000000D+00 0.00000000D+00
 0.00000000D+00 0.11600413D-01 0.00000000D+00 0.00000000D+00 0.00000000D+00
-0.70554953D-03 0.00000000D+00 0.00000000D+00 0.00000000D+00 0.00000000D+00
 0.00000000D+00-0.84675220D-03 0.00000000D+00 0.00000000D+00 0.00000000D+00
 0.00000000D+00 0.00000000D+00 0.49576049D-03 0.00000000D+00 0.00000000D+00
 0.00000000D+00 0.00000000D+00 0.60671563D-02 0.00000000D+00 0.00000000D+00
 0.00000000D+00 0.11600413D-01 0.00000000D+00 0.00000000D+00 0.00000000D+00
-0.70554953D-03 0.00000000D+00 0.00000000D+00 0.00000000D+00 0.00000000D+00
 0.84675220D-03 0.00000000D+00 0.00000000D+00 0.00000000D+00 0.00000000D+00
 0.00000000D+00-0.49576049D-03 0.00000000D+00 0.00000000D+00 0.00000000D+00
 0.00000000D+00 0.00000000D+00 0.60671563D-02 0.00000000D+00 0.00000000D+00
 0.00000000D+00 0.11600413D-01 0.00000000D+00 0.00000000D+00 0.00000000D+00
-0.70554953D-03 0.00000000D+00 0.00000000D+00 0.00000000D+00 0.00000000D+00
-0.84675220D-03 0.00000000D+00 0.00000000D+00 0.00000000D+00 0.00000000D+00
 0.00000000D+00 0.49576049D-03 0.00000000D+00 0.00000000D+00 0.00000000D+00
 0.00000000D+00 0.00000000D+00 0.60671563D-02 0.00000000D+00 0.00000000D+00
 0.00000000D+00 0.11600413D-01 0.00000000D+00 0.00000000D+00 0.00000000D+00
-0.70554953D-03 0.00000000D+00 0.00000000D+00 0.00000000D+00 0.00000000D+00
 0.00000000D+00 0.84675220D-03 0.00000000D+00 0.00000000D+00 0.00000000D+00
 0.00000000D+00 0.00000000D+00-0.49576049D-03 0.85008906D-01 0.13368317D+00
 0.00000000D+00 0.00000000D+00-0.20017186D-01-0.40606390D+00 0.00000000D+00
 0.00000000D+00-0.44563773D-01-0.26152258D+00 0.00000000D+00 0.00000000D+00
-0.36726789D-01-0.78777152D-02-0.78777152D-02-0.83516203D-02 0.00000000D+00
 0.00000000D+00 0.00000000D+00-0.13758124D-01-0.13758124D-01-0.39707936D-01
 0.00000000D+00 0.00000000D+00 0.00000000D+00
   15 Alpha MO OE=-0.17108413D+01
 0.00000000D+00 0.00000000D+00 0.00000000D+00 0.00000000D+00 0.00000000D+00
 0.00000000D+00 0.00000000D+00-0.31791995D-01 0.00000000D+00 0.00000000D+00
-0.66853596D-01 0.00000000D+00 0.00000000D+00 0.92085815D-01 0.00000000D+00
 0.00000000D+00 0.74115571D-01 0.00000000D+00 0.00000000D+00 0.65921422D-02
 0.00000000D+00 0.00000000D+00 0.00000000D+00 0.00000000D+00 0.00000000D+00
 0.00000000D+00 0.00000000D+00 0.00000000D+00 0.00000000D+00 0.00000000D+00
 0.00000000D+00 0.00000000D+00 0.00000000D+00 0.00000000D+00 0.00000000D+00
 0.00000000D+00 0.60671563D-02 0.00000000D+00 0.00000000D+00 0.00000000D+00
 0.11600413D-01 0.00000000D+00 0.00000000D+00 0.00000000D+00-0.70554953D-03
 0.00000000D+00 0.00000000D+00 0.00000000D+00 0.00000000D+00 0.00000000D+00
 0.00000000D+00-0.84675220D-03 0.00000000D+00 0.00000000D+00 0.00000000D+00
 0.00000000D+00 0.00000000D+00 0.49576049D-03-0.85008906D-01-0.13368317D+00
 0.00000000D+00-0.20017186D-01 0.00000000D+00 0.40606390D+00 0.00000000D+00
-0.44563773D-01 0.00000000D+00 0.26152258D+00 0.00000000D+00-0.36726789D-01
 0.00000000D+00 0.78777152D-02 0.83516203D-02 0.78777152D-02 0.00000000D+00
 0.00000000D+00 0.00000000D+00 0.13758124D-01 0.39707936D-01 0.13758124D-01
 0.00000000D+00 0.00000000D+00 0.00000000D+00 0.00000000D+00 0.00000000D+00
 0.00000000D+00 0.60671563D-02 0.00000000D+00 0.00000000D+00 0.00000000D+00
 0.11600413D-01 0.00000000D+00 0.00000000D+00 0.00000000D+00-0.70554953D-03
 0.00000000D+00 0.00000000D+00 0.00000000D+00 0.00000000D+00 0.84675220D-03
 0.00000000D+00 0.00000000D+00 0.00000000D+00 0.00000000D+00 0.00000000D+00
-0.49576049D-03 0.00000000D+00 0.00000000D+00 0.00000000D+00 0.00000000D+00
 0.00000000D+00 0.60671563D-02 0.00000000D+00 0.00000000D+00 0.00000000D+00
 0.11600413D-01 0.00000000D+00 0.00000000D+00 0.00000000D+00-0.70554953D-03
 0.00000000D+00 0.00000000D+00 0.00000000D+00 0.00000000D+00-0.84675220D-03
 0.00000000D+00 0.00000000D+00 0.00000000D+00 0.00000000D+00 0.00000000D+00
 0.49576049D-03 0.00000000D+00 0.00000000D+00 0.85008906D-01 0.13368317D+00
 0.00000000D+00-0.20017186D-01 0.00000000D+00-0.40606390D+00 0.00000000D+00
-0.44563773D-01 0.00000000D+00-0.26152258D+00 0.00000000D+00-0.36726789D-01
 0.00000000D+00-0.78777152D-02-0.83516203D-02-0.78777152D-02 0.00000000D+00
 0.00000000D+00 0.00000000D+00-0.13758124D-01-0.39707936D-01-0.13758124D-01
 0.00000000D+00 0.00000000D+00 0.00000000D+00 0.00000000D+00 0.00000000D+00
 0.00000000D+00 0.60671563D-02 0.00000000D+00 0.00000000D+00 0.00000000D+00
 0.11600413D-01 0.00000000D+00 0.00000000D+00 0.00000000D+00-0.70554953D-03
 0.00000000D+00 0.00000000D+00 0.00000000D+00 0.00000000D+00 0.00000000D+00
 0.00000000D+00 0.84675220D-03 0.00000000D+00 0.00000000D+00 0.00000000D+00
 0.00000000D+00 0.00000000D+00-0.49576049D-03
   16 Alpha MO OE=-0.16559362D+01
-0.16619803D-15-0.52393086D-15 0.17560509D-14-0.74764964D-15 0.11674482D-13
-0.64051371D-13 0.00000000D+00 0.00000000D+00 0.00000000D+00 0.00000000D+00
 0.00000000D+00 0.00000000D+00 0.00000000D+00 0.00000000D+00 0.00000000D+00
 0.00000000D+00 0.00000000D+00 0.00000000D+00 0.00000000D+00 0.00000000D+00
 0.00000000D+00 0.40237942D-01-0.20110473D-01-0.20127468D-01 0.00000000D+00
 0.00000000D+00 0.00000000D+00 0.90689884D-01-0.45325790D-01-0.45364095D-01
 0.00000000D+00 0.00000000D+00 0.00000000D+00 0.36656168D-01 0.57982450D-01
 0.00000000D+00 0.00000000D+00 0.55420934D-02-0.17734869D+00 0.00000000D+00
 0.00000000D+00 0.12302767D-01-0.10337045D+00 0.00000000D+00 0.00000000D+00
 0.29713795D-02-0.26811179D-02-0.35274880D-02-0.35428808D-02 0.00000000D+00
 0.00000000D+00 0.00000000D+00-0.80895294D-02-0.55833806D-02-0.12965326D-01
 0.00000000D+00 0.00000000D+00 0.00000000D+00 0.36625216D-01 0.57933491D-01
 0.00000000D+00 0.55374138D-02 0.00000000D+00-0.17719894D+00 0.00000000D+00
 0.12292378D-01 0.00000000D+00-0.10328317D+00 0.00000000D+00 0.29688705D-02
 0.00000000D+00-0.26783775D-02-0.35398892D-02-0.35249860D-02 0.00000000D+00
 0.00000000D+00 0.00000000D+00-0.80841097D-02-0.12954378D-01-0.55772551D-02
 0.00000000D+00 0.00000000D+00 0.00000000D+00-0.73281383D-01-0.11591594D+00
 0.11079507D-01 0.00000000D+00 0.00000000D+00 0.35454764D+00 0.24595145D-01
 0.00000000D+00 0.00000000D+00 0.20665362D+00 0.59402500D-02 0.00000000D+00
 0.00000000D+00 0.70827700D-02 0.62061039D-02 0.62058655D-02 0.00000000D+00
 0.00000000D+00 0.00000000D+00 0.25919704D-01 0.13666784D-01 0.13667490D-01
 0.00000000D+00 0.00000000D+00 0.00000000D+00-0.73281383D-01-0.11591594D+00
-0.11079507D-01 0.00000000D+00 0.00000000D+00 0.35454764D+00-0.24595145D-01
 0.00000000D+00 0.00000000D+00 0.20665362D+00-0.59402500D-02 0.00000000D+00
 0.00000000D+00 0.70827700D-02 0.62061039D-02 0.62058655D-02 0.00000000D+00
 0.00000000D+00 0.00000000D+00 0.25919704D-01 0.13666784D-01 0.13667490D-01
 0.00000000D+00 0.00000000D+00 0.00000000D+00 0.36625216D-01 0.57933491D-01
 0.00000000D+00-0.55374138D-02 0.00000000D+00-0.17719894D+00 0.00000000D+00
-0.12292378D-01 0.00000000D+00-0.10328317D+00 0.00000000D+00-0.29688705D-02
 0.00000000D+00-0.26783775D-02-0.35398892D-02-0.35249860D-02 0.00000000D+00
 0.00000000D+00 0.00000000D+00-0.80841097D-02-0.12954378D-01-0.55772551D-02
 0.00000000D+00 0.00000000D+00 0.00000000D+00 0.36656168D-01 0.57982450D-01
 0.00000000D+00 0.00000000D+00-0.55420934D-02-0.17734869D+00 0.00000000D+00
 0.00000000D+00-0.12302767D-01-0.10337045D+00 0.00000000D+00 0.00000000D+00
-0.29713795D-02-0.26811179D-02-0.35274880D-02-0.35428808D-02 0.00000000D+00
 0.00000000D+00 0.00000000D+00-0.80895294D-02-0.55833806D-02-0.12965326D-01
 0.00000000D+00 0.00000000D+00 0.00000000D+00
   17 Alpha MO OE=-0.16559362D+01
-0.27460978D-16-0.13278165D-15 0.36995072D-15 0.94156317D-14 0.59587661D-14
-0.11905755D-12 0.00000000D+00 0.00000000D+00 0.00000000D+00 0.00000000D+00
 0.00000000D+00 0.00000000D+00 0.00000000D+00 0.00000000D+00 0.00000000D+00
 0.00000000D+00 0.00000000D+00 0.00000000D+00 0.00000000D+00 0.00000000D+00
 0.00000000D+00-0.98122733D-05 0.34851986D-01-0.34842174D-01 0.00000000D+00
 0.00000000D+00 0.00000000D+00-0.22115295D-04 0.78550801D-01-0.78528686D-01
 0.00000000D+00 0.00000000D+00 0.00000000D+00 0.63454604D-01 0.10037202D+00
 0.00000000D+00 0.00000000D+00 0.95937838D-02-0.30700403D+00 0.00000000D+00
 0.00000000D+00 0.21297021D-01-0.17894209D+00 0.00000000D+00 0.00000000D+00
 0.51436831D-02-0.56182474D-02-0.51293201D-02-0.61329952D-02 0.00000000D+00
 0.00000000D+00 0.00000000D+00-0.11110551D-01-0.12558292D-01-0.22443962D-01
 0.00000000D+00 0.00000000D+00 0.00000000D+00-0.63472474D-01-0.10040028D+00
 0.00000000D+00-0.95964856D-02 0.00000000D+00 0.30709049D+00 0.00000000D+00
-0.21303019D-01 0.00000000D+00 0.17899248D+00 0.00000000D+00-0.51451317D-02
 0.00000000D+00 0.56195543D-02 0.61347224D-02 0.51310399D-02 0.00000000D+00
 0.00000000D+00 0.00000000D+00 0.11114495D-01 0.22450283D-01 0.12561014D-01
 0.00000000D+00 0.00000000D+00 0.00000000D+00 0.17870123D-04 0.28266826D-04
-0.27018070D-05 0.00000000D+00 0.00000000D+00-0.86458655D-04-0.59976796D-05
 0.00000000D+00 0.00000000D+00-0.50393775D-04-0.14485670D-05 0.00000000D+00
 0.00000000D+00-0.17271777D-05 0.48720747D-03-0.49023421D-03 0.00000000D+00
 0.00000000D+00 0.00000000D+00-0.63206817D-05-0.14504622D-02 0.14437966D-02
 0.00000000D+00 0.00000000D+00 0.00000000D+00 0.17870123D-04 0.28266826D-04
 0.27018070D-05 0.00000000D+00 0.00000000D+00-0.86458655D-04 0.59976796D-05
 0.00000000D+00 0.00000000D+00-0.50393775D-04 0.14485670D-05 0.00000000D+00
 0.00000000D+00-0.17271777D-05 0.48720747D-03-0.49023421D-03 0.00000000D+00
 0.00000000D+00 0.00000000D+00-0.63206817D-05-0.14504622D-02 0.14437966D-02
 0.00000000D+00 0.00000000D+00 0.00000000D+00-0.63472474D-01-0.10040028D+00
 0.00000000D+00 0.95964856D-02 0.00000000D+00 0.30709049D+00 0.00000000D+00
 0.21303019D-01 0.00000000D+00 0.17899248D+00 0.00000000D+00 0.51451317D-02
 0.00000000D+00 0.56195543D-02 0.61347224D-02 0.51310399D-02 0.00000000D+00
 0.00000000D+00 0.00000000D+00 0.11114495D-01 0.22450283D-01 0.12561014D-01
 0.00000000D+00 0.00000000D+00 0.00000000D+00 0.63454604D-01 0.10037202D+00
 0.00000000D+00 0.00000000D+00-0.95937838D-02-0.30700403D+00 0.00000000D+00
 0.00000000D+00-0.21297021D-01-0.17894209D+00 0.00000000D+00 0.00000000D+00
-0.51436831D-02-0.56182474D-02-0.51293201D-02-0.61329952D-02 0.00000000D+00
 0.00000000D+00 0.00000000D+00-0.11110551D-01-0.12558292D-01-0.22443962D-01
 0.00000000D+00 0.00000000D+00 0.00000000D+00
   18 Alpha MO OE=-0.10999541D+01
 0.24010228D-01 0.69308220D-01-0.14679209D+00-0.26905724D+00 0.61736001D+00
-0.10381911D+00 0.00000000D+00 0.00000000D+00 0.00000000D+00 0.00000000D+00
 0.00000000D+00 0.00000000D+00 0.00000000D+00 0.00000000D+00 0.00000000D+00
 0.00000000D+00 0.00000000D+00 0.00000000D+00 0.00000000D+00 0.00000000D+00
 0.00000000D+00 0.31056390D-02 0.31056390D-02 0.31056390D-02 0.00000000D+00
 0.00000000D+00 0.00000000D+00 0.37861437D-01 0.37861437D-01 0.37861437D-01
 0.00000000D+00 0.00000000D+00 0.00000000D+00 0.28416410D-01 0.45155194D-01
 0.00000000D+00 0.00000000D+00-0.73541347D-01-0.14818362D+00 0.00000000D+00
 0.00000000D+00-0.11331215D+00-0.94328416D-01 0.00000000D+00 0.00000000D+00
-0.88376548D-01-0.41849201D-02-0.41849201D-02-0.41661010D-03 0.00000000D+00
 0.00000000D+00 0.00000000D+00-0.12507474D-01-0.12507474D-01 0.39385453D-02
 0.00000000D+00 0.00000000D+00 0.00000000D+00 0.28416410D-01 0.45155194D-01
 0.00000000D+00-0.73541347D-01 0.00000000D+00-0.14818362D+00 0.00000000D+00
-0.11331215D+00 0.00000000D+00-0.94328416D-01 0.00000000D+00-0.88376548D-01
 0.00000000D+00-0.41849201D-02-0.41661010D-03-0.41849201D-02 0.00000000D+00
 0.00000000D+00 0.00000000D+00-0.12507474D-01 0.39385453D-02-0.12507474D-01
 0.00000000D+00 0.00000000D+00 0.00000000D+00 0.28416410D-01 0.45155194D-01
 0.73541347D-01 0.00000000D+00 0.00000000D+00-0.14818362D+00 0.11331215D+00
 0.00000000D+00 0.00000000D+00-0.94328416D-01 0.88376548D-01 0.00000000D+00
 0.00000000D+00-0.41661010D-03-0.41849201D-02-0.41849201D-02 0.00000000D+00
 0.00000000D+00 0.00000000D+00 0.39385453D-02-0.12507474D-01-0.12507474D-01
 0.00000000D+00 0.00000000D+00 0.00000000D+00 0.28416410D-01 0.45155194D-01
-0.73541347D-01 0.00000000D+00 0.00000000D+00-0.14818362D+00-0.11331215D+00
 0.00000000D+00 0.00000000D+00-0.94328416D-01-0.88376548D-01 0.00000000D+00
 0.00000000D+00-0.41661010D-03-0.41849201D-02-0.41849201D-02 0.00000000D+00
 0.00000000D+00 0.00000000D+00 0.39385453D-02-0.12507474D-01-0.12507474D-01
 0.00000000D+00 0.00000000D+00 0.00000000D+00 0.28416410D-01 0.45155194D-01
 0.00000000D+00 0.73541347D-01 0.00000000D+00-0.14818362D+00 0.00000000D+00
 0.11331215D+00 0.00000000D+00-0.94328416D-01 0.00000000D+00 0.88376548D-01
 0.00000000D+00-0.41849201D-02-0.41661010D-03-0.41849201D-02 0.00000000D+00
 0.00000000D+00 0.00000000D+00-0.12507474D-01 0.39385453D-02-0.12507474D-01
 0.00000000D+00 0.00000000D+00 0.00000000D+00 0.28416410D-01 0.45155194D-01
 0.00000000D+00 0.00000000D+00 0.73541347D-01-0.14818362D+00 0.00000000D+00
 0.00000000D+00 0.11331215D+00-0.94328416D-01 0.00000000D+00 0.00000000D+00
 0.88376548D-01-0.41849201D-02-0.41849201D-02-0.41661010D-03 0.00000000D+00
 0.00000000D+00 0.00000000D+00-0.12507474D-01-0.12507474D-01 0.39385453D-02
 0.00000000D+00 0.00000000D+00 0.00000000D+00
   19 Alpha MO OE=-0.92433487D+00
 0.00000000D+00 0.00000000D+00 0.00000000D+00 0.00000000D+00 0.00000000D+00
 0.00000000D+00 0.00000000D+00-0.59847237D-01 0.00000000D+00 0.00000000D+00
-0.12250242D+00 0.00000000D+00 0.00000000D+00 0.17737375D+00 0.00000000D+00
 0.00000000D+00 0.29731765D+00 0.00000000D+00 0.00000000D+00-0.63510697D-02
 0.00000000D+00 0.00000000D+00 0.00000000D+00 0.00000000D+00 0.00000000D+00
 0.00000000D+00 0.00000000D+00 0.00000000D+00 0.00000000D+00 0.00000000D+00
 0.00000000D+00 0.00000000D+00 0.00000000D+00 0.00000000D+00 0.00000000D+00
 0.00000000D+00 0.66638145D-01 0.00000000D+00 0.00000000D+00 0.00000000D+00
 0.10329043D+00 0.00000000D+00 0.00000000D+00 0.00000000D+00 0.74965140D-01
 0.00000000D+00 0.00000000D+00 0.00000000D+00 0.00000000D+00 0.00000000D+00
 0.00000000D+00-0.18955395D-02 0.00000000D+00 0.00000000D+00 0.00000000D+00
 0.00000000D+00 0.00000000D+00-0.59558630D-02 0.28875930D-01 0.46651588D-01
 0.00000000D+00-0.14045206D+00 0.00000000D+00-0.14389944D+00 0.00000000D+00
-0.22045510D+00 0.00000000D+00-0.18081549D+00 0.00000000D+00-0.15075834D+00
 0.00000000D+00-0.43187091D-02 0.77889311D-03-0.43187091D-02 0.00000000D+00
 0.00000000D+00 0.00000000D+00-0.87217768D-02 0.20519259D-01-0.87217768D-02
 0.00000000D+00 0.00000000D+00 0.00000000D+00 0.00000000D+00 0.00000000D+00
 0.00000000D+00 0.66638145D-01 0.00000000D+00 0.00000000D+00 0.00000000D+00
 0.10329043D+00 0.00000000D+00 0.00000000D+00 0.00000000D+00 0.74965140D-01
 0.00000000D+00 0.00000000D+00 0.00000000D+00 0.00000000D+00 0.18955395D-02
 0.00000000D+00 0.00000000D+00 0.00000000D+00 0.00000000D+00 0.00000000D+00
 0.59558630D-02 0.00000000D+00 0.00000000D+00 0.00000000D+00 0.00000000D+00
 0.00000000D+00 0.66638145D-01 0.00000000D+00 0.00000000D+00 0.00000000D+00
 0.10329043D+00 0.00000000D+00 0.00000000D+00 0.00000000D+00 0.74965140D-01
 0.00000000D+00 0.00000000D+00 0.00000000D+00 0.00000000D+00-0.18955395D-02
 0.00000000D+00 0.00000000D+00 0.00000000D+00 0.00000000D+00 0.00000000D+00
-0.59558630D-02 0.00000000D+00 0.00000000D+00-0.28875930D-01-0.46651588D-01
 0.00000000D+00-0.14045206D+00 0.00000000D+00 0.14389944D+00 0.00000000D+00
-0.22045510D+00 0.00000000D+00 0.18081549D+00 0.00000000D+00-0.15075834D+00
 0.00000000D+00 0.43187091D-02-0.77889311D-03 0.43187091D-02 0.00000000D+00
 0.00000000D+00 0.00000000D+00 0.87217768D-02-0.20519259D-01 0.87217768D-02
 0.00000000D+00 0.00000000D+00 0.00000000D+00 0.00000000D+00 0.00000000D+00
 0.00000000D+00 0.66638145D-01 0.00000000D+00 0.00000000D+00 0.00000000D+00
 0.10329043D+00 0.00000000D+00 0.00000000D+00 0.00000000D+00 0.74965140D-01
 0.00000000D+00 0.00000000D+00 0.00000000D+00 0.00000000D+00 0.00000000D+00
 0.00000000D+00 0.18955395D-02 0.00000000D+00 0.00000000D+00 0.00000000D+00
 0.00000000D+00 0.00000000D+00 0.59558630D-02
   20 Alpha MO OE=-0.92433487D+00
 0.00000000D+00 0.00000000D+00 0.00000000D+00 0.00000000D+00 0.00000000D+00
 0.00000000D+00-0.59847237D-01 0.00000000D+00 0.00000000D+00-0.12250242D+00
 0.00000000D+00 0.00000000D+00 0.17737375D+00 0.00000000D+00 0.00000000D+00
 0.29731765D+00 0.00000000D+00 0.00000000D+00-0.63510697D-02 0.00000000D+00
 0.00000000D+00 0.00000000D+00 0.00000000D+00 0.00000000D+00 0.00000000D+00
 0.00000000D+00 0.00000000D+00 0.00000000D+00 0.00000000D+00 0.00000000D+00
 0.00000000D+00 0.00000000D+00 0.00000000D+00 0.00000000D+00 0.00000000D+00
 0.66638145D-01 0.00000000D+00 0.00000000D+00 0.00000000D+00 0.10329043D+00
 0.00000000D+00 0.00000000D+00 0.00000000D+00 0.74965140D-01 0.00000000D+00
 0.00000000D+00 0.00000000D+00 0.00000000D+00 0.00000000D+00 0.00000000D+00
-0.18955395D-02 0.00000000D+00 0.00000000D+00 0.00000000D+00 0.00000000D+00
 0.00000000D+00-0.59558630D-02 0.00000000D+00 0.00000000D+00 0.00000000D+00
 0.66638145D-01 0.00000000D+00 0.00000000D+00 0.00000000D+00 0.10329043D+00
[...]
-0.56823232D+00 0.13866729D+01 0.13866729D+01 0.13946221D+01 0.00000000D+00
 0.00000000D+00 0.00000000D+00 0.12415385D+01 0.12415385D+01 0.12066204D+01
 0.00000000D+00 0.00000000D+00 0.00000000D+00
  177 Alpha MO OE= 0.82938385D+02
-0.24255549D-14 0.35976571D-14-0.19848304D-13-0.38226651D-13 0.34717667D-13
 0.71820489D-12 0.00000000D+00 0.00000000D+00 0.00000000D+00 0.00000000D+00
 0.00000000D+00 0.00000000D+00 0.00000000D+00 0.00000000D+00 0.00000000D+00
 0.00000000D+00 0.00000000D+00 0.00000000D+00 0.00000000D+00 0.00000000D+00
 0.00000000D+00 0.40533603D-01-0.53602964D-02-0.35173307D-01 0.00000000D+00
 0.00000000D+00 0.00000000D+00-0.45928255D-01 0.60737029D-02 0.39854553D-01
 0.00000000D+00 0.00000000D+00 0.00000000D+00-0.12414350D+01 0.17905756D+01
 0.00000000D+00 0.00000000D+00 0.16595141D-01-0.21775265D+01 0.00000000D+00
 0.00000000D+00-0.54205673D-01-0.10851033D+01 0.00000000D+00 0.00000000D+00
 0.13083283D+00 0.81190447D+00 0.79379302D+00 0.81040588D+00 0.00000000D+00
 0.00000000D+00 0.00000000D+00 0.67714720D+00 0.72617493D+00 0.67773007D+00
 0.00000000D+00 0.00000000D+00 0.00000000D+00-0.18919062D+00 0.27287784D+00
 0.00000000D+00 0.25290450D-02 0.00000000D+00-0.33184788D+00 0.00000000D+00
-0.82607665D-02 0.00000000D+00-0.16536618D+00 0.00000000D+00 0.19938494D-01
 0.00000000D+00 0.13728990D+00 0.12350320D+00 0.10741312D+00 0.00000000D+00
 0.00000000D+00 0.00000000D+00 0.66492597D-01 0.10328384D+00 0.14736909D+00
 0.00000000D+00 0.00000000D+00 0.00000000D+00 0.14306256D+01-0.20634534D+01
 0.19124186D-01 0.00000000D+00 0.00000000D+00 0.25093744D+01-0.62466439D-01
 0.00000000D+00 0.00000000D+00 0.12504695D+01 0.15077133D+00 0.00000000D+00
 0.00000000D+00-0.93390908D+00-0.91931759D+00-0.93108292D+00 0.00000000D+00
 0.00000000D+00 0.00000000D+00-0.78101390D+00-0.82451629D+00-0.79266752D+00
 0.00000000D+00 0.00000000D+00 0.00000000D+00 0.14306256D+01-0.20634534D+01
-0.19124186D-01 0.00000000D+00 0.00000000D+00 0.25093744D+01 0.62466439D-01
 0.00000000D+00 0.00000000D+00 0.12504695D+01-0.15077133D+00 0.00000000D+00
 0.00000000D+00-0.93390908D+00-0.91931759D+00-0.93108292D+00 0.00000000D+00
 0.00000000D+00 0.00000000D+00-0.78101390D+00-0.82451629D+00-0.79266752D+00
 0.00000000D+00 0.00000000D+00 0.00000000D+00-0.18919062D+00 0.27287784D+00
 0.00000000D+00-0.25290450D-02 0.00000000D+00-0.33184788D+00 0.00000000D+00
 0.82607665D-02 0.00000000D+00-0.16536618D+00 0.00000000D+00-0.19938494D-01
 0.00000000D+00 0.13728990D+00 0.12350320D+00 0.10741312D+00 0.00000000D+00
 0.00000000D+00 0.00000000D+00 0.66492597D-01 0.10328384D+00 0.14736909D+00
 0.00000000D+00 0.00000000D+00 0.00000000D+00-0.12414350D+01 0.17905756D+01
 0.00000000D+00 0.00000000D+00-0.16595141D-01-0.21775265D+01 0.00000000D+00
 0.00000000D+00 0.54205673D-01-0.10851033D+01 0.00000000D+00 0.00000000D+00
-0.13083283D+00 0.81190447D+00 0.79379302D+00 0.81040588D+00 0.00000000D+00
 0.00000000D+00 0.00000000D+00 0.67714720D+00 0.72617493D+00 0.67773007D+00
 0.00000000D+00 0.00000000D+00 0.00000000D+00
  178 Alpha MO OE= 0.82938385D+02
-0.10239964D-14 0.27262665D-15 0.81941253D-14 0.23997578D-13-0.25734579D-12
 0.76996995D-12 0.00000000D+00 0.00000000D+00 0.00000000D+00 0.00000000D+00
 0.00000000D+00 0.00000000D+00 0.00000000D+00 0.00000000D+00 0.00000000D+00
 0.00000000D+00 0.00000000D+00 0.00000000D+00 0.00000000D+00 0.00000000D+00
 0.00000000D+00-0.17212549D-01 0.43709405D-01-0.26496855D-01 0.00000000D+00
 0.00000000D+00 0.00000000D+00 0.19503383D-01-0.49526727D-01 0.30023345D-01
 0.00000000D+00 0.00000000D+00 0.00000000D+00-0.93520135D+00 0.13488815D+01
 0.00000000D+00 0.00000000D+00 0.12501499D-01-0.16403804D+01 0.00000000D+00
 0.00000000D+00-0.40834371D-01-0.81743312D+00 0.00000000D+00 0.00000000D+00
 0.98559360D-01 0.59278325D+00 0.61682533D+00 0.61049726D+00 0.00000000D+00
 0.00000000D+00 0.00000000D+00 0.56111828D+00 0.49603633D+00 0.51054954D+00
 0.00000000D+00 0.00000000D+00 0.00000000D+00 0.15427149D+01-0.22251247D+01
 0.00000000D+00-0.20622564D-01 0.00000000D+00 0.27059835D+01 0.00000000D+00
 0.67360675D-01 0.00000000D+00 0.13484436D+01 0.00000000D+00-0.16258424D+00
 0.00000000D+00-0.99585758D+00-0.10070807D+01-0.99952152D+00 0.00000000D+00
 0.00000000D+00 0.00000000D+00-0.87690410D+00-0.84220622D+00-0.86698582D+00
 0.00000000D+00 0.00000000D+00 0.00000000D+00-0.60751358D+00 0.87624320D+00
-0.81210645D-02 0.00000000D+00 0.00000000D+00-0.10656030D+01 0.26526304D-01
 0.00000000D+00 0.00000000D+00-0.53101049D+00-0.64024876D-01 0.00000000D+00
 0.00000000D+00 0.39658345D+00 0.40673827D+00 0.37903225D+00 0.00000000D+00
 0.00000000D+00 0.00000000D+00 0.33165669D+00 0.30586754D+00 0.38086777D+00
 0.00000000D+00 0.00000000D+00 0.00000000D+00-0.60751358D+00 0.87624320D+00
 0.81210645D-02 0.00000000D+00 0.00000000D+00-0.10656030D+01-0.26526304D-01
 0.00000000D+00 0.00000000D+00-0.53101049D+00 0.64024876D-01 0.00000000D+00
 0.00000000D+00 0.39658345D+00 0.40673827D+00 0.37903225D+00 0.00000000D+00
 0.00000000D+00 0.00000000D+00 0.33165669D+00 0.30586754D+00 0.38086777D+00
 0.00000000D+00 0.00000000D+00 0.00000000D+00 0.15427149D+01-0.22251247D+01
 0.00000000D+00 0.20622564D-01 0.00000000D+00 0.27059835D+01 0.00000000D+00
-0.67360675D-01 0.00000000D+00 0.13484436D+01 0.00000000D+00 0.16258424D+00
 0.00000000D+00-0.99585758D+00-0.10070807D+01-0.99952152D+00 0.00000000D+00
 0.00000000D+00 0.00000000D+00-0.87690410D+00-0.84220622D+00-0.86698582D+00
 0.00000000D+00 0.00000000D+00 0.00000000D+00-0.93520135D+00 0.13488815D+01
 0.00000000D+00 0.00000000D+00-0.12501499D-01-0.16403804D+01 0.00000000D+00
 0.00000000D+00 0.40834371D-01-0.81743312D+00 0.00000000D+00 0.00000000D+00
-0.98559360D-01 0.59278325D+00 0.61682533D+00 0.61049726D+00 0.00000000D+00
 0.00000000D+00 0.00000000D+00 0.56111828D+00 0.49603633D+00 0.51054954D+00
 0.00000000D+00 0.00000000D+00 0.00000000D+00
  179 Alpha MO OE= 0.84498162D+02
 0.00000000D+00 0.00000000D+00 0.00000000D+00 0.00000000D+00 0.00000000D+00
 0.00000000D+00 0.00000000D+00 0.00000000D+00 0.20997856D-01 0.00000000D+00
 0.00000000D+00-0.52594511D-01 0.00000000D+00 0.00000000D+00 0.90390421D-01
 0.00000000D+00 0.00000000D+00-0.38164856D+00 0.00000000D+00 0.00000000D+00
-0.39864642D+00 0.00000000D+00 0.00000000D+00 0.00000000D+00 0.00000000D+00
 0.00000000D+00 0.00000000D+00 0.00000000D+00 0.00000000D+00 0.00000000D+00
 0.00000000D+00 0.00000000D+00 0.00000000D+00 0.19221541D+01-0.28304076D+01
 0.00000000D+00 0.00000000D+00-0.18071473D-01 0.34910683D+01 0.00000000D+00
 0.00000000D+00 0.57850353D-01 0.22458923D+01 0.00000000D+00 0.00000000D+00
-0.21762089D+00-0.13215696D+01-0.13215696D+01-0.13371468D+01 0.00000000D+00
 0.00000000D+00 0.00000000D+00-0.12330484D+01-0.12330484D+01-0.11790683D+01
 0.00000000D+00 0.00000000D+00 0.00000000D+00 0.00000000D+00 0.00000000D+00
 0.00000000D+00 0.00000000D+00 0.16250796D-02 0.00000000D+00 0.00000000D+00
 0.00000000D+00 0.38982308D-02 0.00000000D+00 0.00000000D+00 0.00000000D+00
 0.17085938D-02 0.00000000D+00 0.00000000D+00 0.00000000D+00 0.00000000D+00
 0.00000000D+00-0.13468241D-01 0.00000000D+00 0.00000000D+00 0.00000000D+00
 0.00000000D+00 0.00000000D+00 0.33478426D-01 0.00000000D+00 0.00000000D+00
 0.00000000D+00 0.00000000D+00 0.16250796D-02 0.00000000D+00 0.00000000D+00
 0.00000000D+00 0.38982308D-02 0.00000000D+00 0.00000000D+00 0.00000000D+00
 0.17085938D-02 0.00000000D+00 0.00000000D+00 0.00000000D+00 0.00000000D+00
 0.13468241D-01 0.00000000D+00 0.00000000D+00 0.00000000D+00 0.00000000D+00
 0.00000000D+00-0.33478426D-01 0.00000000D+00 0.00000000D+00 0.00000000D+00
 0.00000000D+00 0.00000000D+00 0.16250796D-02 0.00000000D+00 0.00000000D+00
 0.00000000D+00 0.38982308D-02 0.00000000D+00 0.00000000D+00 0.00000000D+00
 0.17085938D-02 0.00000000D+00 0.00000000D+00 0.00000000D+00 0.00000000D+00
-0.13468241D-01 0.00000000D+00 0.00000000D+00 0.00000000D+00 0.00000000D+00
 0.00000000D+00 0.33478426D-01 0.00000000D+00 0.00000000D+00 0.00000000D+00
 0.00000000D+00 0.00000000D+00 0.16250796D-02 0.00000000D+00 0.00000000D+00
 0.00000000D+00 0.38982308D-02 0.00000000D+00 0.00000000D+00 0.00000000D+00
 0.17085938D-02 0.00000000D+00 0.00000000D+00 0.00000000D+00 0.00000000D+00
 0.00000000D+00 0.13468241D-01 0.00000000D+00 0.00000000D+00 0.00000000D+00
 0.00000000D+00 0.00000000D+00-0.33478426D-01-0.19221541D+01 0.28304076D+01
 0.00000000D+00 0.00000000D+00-0.18071473D-01-0.34910683D+01 0.00000000D+00
 0.00000000D+00 0.57850353D-01-0.22458923D+01 0.00000000D+00 0.00000000D+00
-0.21762089D+00 0.13215696D+01 0.13215696D+01 0.13371468D+01 0.00000000D+00
 0.00000000D+00 0.00000000D+00 0.12330484D+01 0.12330484D+01 0.11790683D+01
 0.00000000D+00 0.00000000D+00 0.00000000D+00
  180 Alpha MO OE= 0.84498162D+02
 0.00000000D+00 0.00000000D+00 0.00000000D+00 0.00000000D+00 0.00000000D+00
 0.00000000D+00-0.20997856D-01 0.00000000D+00 0.00000000D+00 0.52594511D-01
 0.00000000D+00 0.00000000D+00-0.90390421D-01 0.00000000D+00 0.00000000D+00
 0.38164856D+00 0.00000000D+00 0.00000000D+00 0.39864642D+00 0.00000000D+00
 0.00000000D+00 0.00000000D+00 0.00000000D+00 0.00000000D+00 0.00000000D+00
 0.00000000D+00 0.00000000D+00 0.00000000D+00 0.00000000D+00 0.00000000D+00
 0.00000000D+00 0.00000000D+00 0.00000000D+00 0.00000000D+00 0.00000000D+00
-0.16250796D-02 0.00000000D+00 0.00000000D+00 0.00000000D+00-0.38982308D-02
 0.00000000D+00 0.00000000D+00 0.00000000D+00-0.17085938D-02 0.00000000D+00
 0.00000000D+00 0.00000000D+00 0.00000000D+00 0.00000000D+00 0.00000000D+00
 0.13468241D-01 0.00000000D+00 0.00000000D+00 0.00000000D+00 0.00000000D+00
 0.00000000D+00-0.33478426D-01 0.00000000D+00 0.00000000D+00 0.00000000D+00
-0.16250796D-02 0.00000000D+00 0.00000000D+00 0.00000000D+00-0.38982308D-02
 0.00000000D+00 0.00000000D+00 0.00000000D+00-0.17085938D-02 0.00000000D+00
 0.00000000D+00 0.00000000D+00 0.00000000D+00 0.00000000D+00 0.13468241D-01
 0.00000000D+00 0.00000000D+00 0.00000000D+00 0.00000000D+00 0.00000000D+00
-0.33478426D-01 0.00000000D+00 0.00000000D+00 0.19221541D+01-0.28304076D+01
 0.18071473D-01 0.00000000D+00 0.00000000D+00 0.34910683D+01-0.57850353D-01
 0.00000000D+00 0.00000000D+00 0.22458923D+01 0.21762089D+00 0.00000000D+00
 0.00000000D+00-0.13371468D+01-0.13215696D+01-0.13215696D+01 0.00000000D+00
 0.00000000D+00 0.00000000D+00-0.11790683D+01-0.12330484D+01-0.12330484D+01
 0.00000000D+00 0.00000000D+00 0.00000000D+00-0.19221541D+01 0.28304076D+01
 0.18071473D-01 0.00000000D+00 0.00000000D+00-0.34910683D+01-0.57850353D-01
 0.00000000D+00 0.00000000D+00-0.22458923D+01 0.21762089D+00 0.00000000D+00
 0.00000000D+00 0.13371468D+01 0.13215696D+01 0.13215696D+01 0.00000000D+00
 0.00000000D+00 0.00000000D+00 0.11790683D+01 0.12330484D+01 0.12330484D+01
 0.00000000D+00 0.00000000D+00 0.00000000D+00 0.00000000D+00 0.00000000D+00
-0.16250796D-02 0.00000000D+00 0.00000000D+00 0.00000000D+00-0.38982308D-02
 0.00000000D+00 0.00000000D+00 0.00000000D+00-0.17085938D-02 0.00000000D+00
 0.00000000D+00 0.00000000D+00 0.00000000D+00 0.00000000D+00-0.13468241D-01
 0.00000000D+00 0.00000000D+00 0.00000000D+00 0.00000000D+00 0.00000000D+00
 0.33478426D-01 0.00000000D+00 0.00000000D+00 0.00000000D+00 0.00000000D+00
-0.16250796D-02 0.00000000D+00 0.00000000D+00 0.00000000D+00-0.38982308D-02
 0.00000000D+00 0.00000000D+00 0.00000000D+00-0.17085938D-02 0.00000000D+00
 0.00000000D+00 0.00000000D+00 0.00000000D+00 0.00000000D+00 0.00000000D+00
-0.13468241D-01 0.00000000D+00 0.00000000D+00 0.00000000D+00 0.00000000D+00
 0.00000000D+00 0.33478426D-01 0.00000000D+00
  181 Alpha MO OE= 0.84498162D+02
 0.00000000D+00 0.00000000D+00 0.00000000D+00 0.00000000D+00 0.00000000D+00
 0.00000000D+00 0.00000000D+00 0.20997856D-01 0.00000000D+00 0.00000000D+00
-0.52594511D-01 0.00000000D+00 0.00000000D+00 0.90390421D-01 0.00000000D+00
 0.00000000D+00-0.38164856D+00 0.00000000D+00 0.00000000D+00-0.39864642D+00
 0.00000000D+00 0.00000000D+00 0.00000000D+00 0.00000000D+00 0.00000000D+00
 0.00000000D+00 0.00000000D+00 0.00000000D+00 0.00000000D+00 0.00000000D+00
 0.00000000D+00 0.00000000D+00 0.00000000D+00 0.00000000D+00 0.00000000D+00
 0.00000000D+00 0.16250796D-02 0.00000000D+00 0.00000000D+00 0.00000000D+00
 0.38982308D-02 0.00000000D+00 0.00000000D+00 0.00000000D+00 0.17085938D-02
 0.00000000D+00 0.00000000D+00 0.00000000D+00 0.00000000D+00 0.00000000D+00
 0.00000000D+00-0.13468241D-01 0.00000000D+00 0.00000000D+00 0.00000000D+00
 0.00000000D+00 0.00000000D+00 0.33478426D-01 0.19221541D+01-0.28304076D+01
 0.00000000D+00-0.18071473D-01 0.00000000D+00 0.34910683D+01 0.00000000D+00
 0.57850353D-01 0.00000000D+00 0.22458923D+01 0.00000000D+00-0.21762089D+00
 0.00000000D+00-0.13215696D+01-0.13371468D+01-0.13215696D+01 0.00000000D+00
 0.00000000D+00 0.00000000D+00-0.12330484D+01-0.11790683D+01-0.12330484D+01
 0.00000000D+00 0.00000000D+00 0.00000000D+00 0.00000000D+00 0.00000000D+00
 0.00000000D+00 0.16250796D-02 0.00000000D+00 0.00000000D+00 0.00000000D+00
 0.38982308D-02 0.00000000D+00 0.00000000D+00 0.00000000D+00 0.17085938D-02
 0.00000000D+00 0.00000000D+00 0.00000000D+00 0.00000000D+00 0.13468241D-01
 0.00000000D+00 0.00000000D+00 0.00000000D+00 0.00000000D+00 0.00000000D+00
-0.33478426D-01 0.00000000D+00 0.00000000D+00 0.00000000D+00 0.00000000D+00
 0.00000000D+00 0.16250796D-02 0.00000000D+00 0.00000000D+00 0.00000000D+00
 0.38982308D-02 0.00000000D+00 0.00000000D+00 0.00000000D+00 0.17085938D-02
 0.00000000D+00 0.00000000D+00 0.00000000D+00 0.00000000D+00-0.13468241D-01
 0.00000000D+00 0.00000000D+00 0.00000000D+00 0.00000000D+00 0.00000000D+00
 0.33478426D-01 0.00000000D+00 0.00000000D+00-0.19221541D+01 0.28304076D+01
 0.00000000D+00-0.18071473D-01 0.00000000D+00-0.34910683D+01 0.00000000D+00
 0.57850353D-01 0.00000000D+00-0.22458923D+01 0.00000000D+00-0.21762089D+00
 0.00000000D+00 0.13215696D+01 0.13371468D+01 0.13215696D+01 0.00000000D+00
 0.00000000D+00 0.00000000D+00 0.12330484D+01 0.11790683D+01 0.12330484D+01
 0.00000000D+00 0.00000000D+00 0.00000000D+00 0.00000000D+00 0.00000000D+00
 0.00000000D+00 0.16250796D-02 0.00000000D+00 0.00000000D+00 0.00000000D+00
 0.38982308D-02 0.00000000D+00 0.00000000D+00 0.00000000D+00 0.17085938D-02
 0.00000000D+00 0.00000000D+00 0.00000000D+00 0.00000000D+00 0.00000000D+00
 0.00000000D+00 0.13468241D-01 0.00000000D+00 0.00000000D+00 0.00000000D+00
 0.00000000D+00 0.00000000D+00-0.33478426D-01
  182 Alpha MO OE= 0.88319903D+02
 0.26720800D-02 0.32754603D-03-0.28786795D-01 0.20364239D+00-0.15966012D+01
 0.55370441D+01 0.00000000D+00 0.00000000D+00 0.00000000D+00 0.00000000D+00
 0.00000000D+00 0.00000000D+00 0.00000000D+00 0.00000000D+00 0.00000000D+00
 0.00000000D+00 0.00000000D+00 0.00000000D+00 0.00000000D+00 0.00000000D+00
 0.00000000D+00 0.98875408D-01 0.98875408D-01 0.98875408D-01 0.00000000D+00
 0.00000000D+00 0.00000000D+00 0.10420145D-01 0.10420145D-01 0.10420145D-01
 0.00000000D+00 0.00000000D+00 0.00000000D+00-0.11342762D+01 0.17465410D+01
 0.00000000D+00 0.00000000D+00 0.22393607D-01-0.20576320D+01 0.00000000D+00
 0.00000000D+00-0.71474610D-01-0.29139175D+01 0.00000000D+00 0.00000000D+00
 0.53289868D+00 0.88347559D+00 0.88347559D+00 0.89016746D+00 0.00000000D+00
 0.00000000D+00 0.00000000D+00 0.98366898D+00 0.98366898D+00 0.95079936D+00
 0.00000000D+00 0.00000000D+00 0.00000000D+00-0.11342762D+01 0.17465410D+01
 0.00000000D+00 0.22393607D-01 0.00000000D+00-0.20576320D+01 0.00000000D+00
-0.71474610D-01 0.00000000D+00-0.29139175D+01 0.00000000D+00 0.53289868D+00
 0.00000000D+00 0.88347559D+00 0.89016746D+00 0.88347559D+00 0.00000000D+00
 0.00000000D+00 0.00000000D+00 0.98366898D+00 0.95079936D+00 0.98366898D+00
 0.00000000D+00 0.00000000D+00 0.00000000D+00-0.11342762D+01 0.17465410D+01
-0.22393607D-01 0.00000000D+00 0.00000000D+00-0.20576320D+01 0.71474610D-01
 0.00000000D+00 0.00000000D+00-0.29139175D+01-0.53289868D+00 0.00000000D+00
 0.00000000D+00 0.89016746D+00 0.88347559D+00 0.88347559D+00 0.00000000D+00
 0.00000000D+00 0.00000000D+00 0.95079936D+00 0.98366898D+00 0.98366898D+00
 0.00000000D+00 0.00000000D+00 0.00000000D+00-0.11342762D+01 0.17465410D+01
 0.22393607D-01 0.00000000D+00 0.00000000D+00-0.20576320D+01-0.71474610D-01
 0.00000000D+00 0.00000000D+00-0.29139175D+01 0.53289868D+00 0.00000000D+00
 0.00000000D+00 0.89016746D+00 0.88347559D+00 0.88347559D+00 0.00000000D+00
 0.00000000D+00 0.00000000D+00 0.95079936D+00 0.98366898D+00 0.98366898D+00
 0.00000000D+00 0.00000000D+00 0.00000000D+00-0.11342762D+01 0.17465410D+01
 0.00000000D+00-0.22393607D-01 0.00000000D+00-0.20576320D+01 0.00000000D+00
 0.71474610D-01 0.00000000D+00-0.29139175D+01 0.00000000D+00-0.53289868D+00
 0.00000000D+00 0.88347559D+00 0.89016746D+00 0.88347559D+00 0.00000000D+00
 0.00000000D+00 0.00000000D+00 0.98366898D+00 0.95079936D+00 0.98366898D+00
 0.00000000D+00 0.00000000D+00 0.00000000D+00-0.11342762D+01 0.17465410D+01
 0.00000000D+00 0.00000000D+00-0.22393607D-01-0.20576320D+01 0.00000000D+00
 0.00000000D+00 0.71474610D-01-0.29139175D+01 0.00000000D+00 0.00000000D+00
-0.53289868D+00 0.88347559D+00 0.88347559D+00 0.89016746D+00 0.00000000D+00
 0.00000000D+00 0.00000000D+00 0.98366898D+00 0.98366898D+00 0.95079936D+00
 0.00000000D+00 0.00000000D+00 0.00000000D+00
  183 Alpha MO OE= 0.19758753D+03
-0.15543149D+01 0.19505323D+01-0.17440841D+01 0.83682368D+00 0.14652599D+01
 0.11858376D+00 0.00000000D+00 0.00000000D+00 0.00000000D+00 0.00000000D+00
 0.00000000D+00 0.00000000D+00 0.00000000D+00 0.00000000D+00 0.00000000D+00
 0.00000000D+00 0.00000000D+00 0.00000000D+00 0.00000000D+00 0.00000000D+00
 0.00000000D+00-0.61557974D+00-0.61557974D+00-0.61557974D+00 0.00000000D+00
 0.00000000D+00 0.00000000D+00-0.38526228D+00-0.38526228D+00-0.38526228D+00
 0.00000000D+00 0.00000000D+00 0.00000000D+00-0.37842648D-02 0.88854474D-02
 0.00000000D+00 0.00000000D+00-0.56905996D-02-0.43759096D-01 0.00000000D+00
 0.00000000D+00 0.17696032D-01 0.13100780D+00 0.00000000D+00 0.00000000D+00
-0.60968610D-01 0.94062193D-02 0.94062193D-02 0.54080731D-02 0.00000000D+00
 0.00000000D+00 0.00000000D+00-0.53817411D-02-0.53817411D-02-0.18471814D-01
 0.00000000D+00 0.00000000D+00 0.00000000D+00-0.37842648D-02 0.88854474D-02
 0.00000000D+00-0.56905996D-02 0.00000000D+00-0.43759096D-01 0.00000000D+00
 0.17696032D-01 0.00000000D+00 0.13100780D+00 0.00000000D+00-0.60968610D-01
 0.00000000D+00 0.94062193D-02 0.54080731D-02 0.94062193D-02 0.00000000D+00
 0.00000000D+00 0.00000000D+00-0.53817411D-02-0.18471814D-01-0.53817411D-02
 0.00000000D+00 0.00000000D+00 0.00000000D+00-0.37842648D-02 0.88854474D-02
 0.56905996D-02 0.00000000D+00 0.00000000D+00-0.43759096D-01-0.17696032D-01
 0.00000000D+00 0.00000000D+00 0.13100780D+00 0.60968610D-01 0.00000000D+00
 0.00000000D+00 0.54080731D-02 0.94062193D-02 0.94062193D-02 0.00000000D+00
 0.00000000D+00 0.00000000D+00-0.18471814D-01-0.53817411D-02-0.53817411D-02
 0.00000000D+00 0.00000000D+00 0.00000000D+00-0.37842648D-02 0.88854474D-02
-0.56905996D-02 0.00000000D+00 0.00000000D+00-0.43759096D-01 0.17696032D-01
 0.00000000D+00 0.00000000D+00 0.13100780D+00-0.60968610D-01 0.00000000D+00
 0.00000000D+00 0.54080731D-02 0.94062193D-02 0.94062193D-02 0.00000000D+00
 0.00000000D+00 0.00000000D+00-0.18471814D-01-0.53817411D-02-0.53817411D-02
 0.00000000D+00 0.00000000D+00 0.00000000D+00-0.37842648D-02 0.88854474D-02
 0.00000000D+00 0.56905996D-02 0.00000000D+00-0.43759096D-01 0.00000000D+00
-0.17696032D-01 0.00000000D+00 0.13100780D+00 0.00000000D+00 0.60968610D-01
 0.00000000D+00 0.94062193D-02 0.54080731D-02 0.94062193D-02 0.00000000D+00
 0.00000000D+00 0.00000000D+00-0.53817411D-02-0.18471814D-01-0.53817411D-02
 0.00000000D+00 0.00000000D+00 0.00000000D+00-0.37842648D-02 0.88854474D-02
 0.00000000D+00 0.00000000D+00 0.56905996D-02-0.43759096D-01 0.00000000D+00
 0.00000000D+00-0.17696032D-01 0.13100780D+00 0.00000000D+00 0.00000000D+00
 0.60968610D-01 0.94062193D-02 0.94062193D-02 0.54080731D-02 0.00000000D+00
 0.00000000D+00 0.00000000D+00-0.53817411D-02-0.53817411D-02-0.18471814D-01
 0.00000000D+00 0.00000000D+00 0.00000000D+00
59.584u 4.341s 1:07.56 94.6% 0+0k 524+5io 4pf+0w
Tue May 24 16:35:02 CDT 2005
