Warning: no access to tty (Bad file number).
Thus no job control in this shell.
 Entering Gaussian System, Link 0=g03
 Initial command:
 /usr/local/g03/g03/l1.exe /work/47827.titan/Gau-2529112.inp -scrdir=/work/47827.titan/
 Entering Link 1 = /usr/local/g03/g03/l1.exe PID=   2534069.
  
 Copyright (c) 1988,1990,1992,1993,1995,1998,2003,2004, Gaussian, Inc.
                  All Rights Reserved.
  
 This is the Gaussian(R) 03 program.  It is based on the
 the Gaussian(R) 98 system (copyright 1998, Gaussian, Inc.),
 the Gaussian(R) 94 system (copyright 1995, Gaussian, Inc.),
 the Gaussian 92(TM) system (copyright 1992, Gaussian, Inc.),
 the Gaussian 90(TM) system (copyright 1990, Gaussian, Inc.),
 the Gaussian 88(TM) system (copyright 1988, Gaussian, Inc.),
 the Gaussian 86(TM) system (copyright 1986, Carnegie Mellon
 University), and the Gaussian 82(TM) system (copyright 1983,
 Carnegie Mellon University). Gaussian is a federally registered
 trademark of Gaussian, Inc.
  
 This software contains proprietary and confidential information,
 including trade secrets, belonging to Gaussian, Inc.
  
 This software is provided under written license and may be
 used, copied, transmitted, or stored only in accord with that
 written license.
  
 The following legend is applicable only to US Government
 contracts under FAR:
  
                    RESTRICTED RIGHTS LEGEND
  
 Use, reproduction and disclosure by the US Government is
 subject to restrictions as set forth in subparagraphs (a)
 and (c) of the Commercial Computer Software - Restricted
 Rights clause in FAR 52.227-19.
  
 Gaussian, Inc.
 340 Quinnipiac St., Bldg. 40, Wallingford CT 06492
  
  
 ---------------------------------------------------------------
 Warning -- This program may not be used in any manner that
 competes with the business of Gaussian, Inc. or will provide
 assistance to any competitor of Gaussian, Inc.  The licensee
 of this program is prohibited from giving any competitor of
 Gaussian, Inc. access to this program.  By using this program,
 the user acknowledges that Gaussian, Inc. is engaged in the
 business of creating and licensing software in the field of
 computational chemistry and represents and warrants to the
 licensee that it is not a competitor of Gaussian, Inc. and that
 it will not use this program in any manner prohibited above.
 ---------------------------------------------------------------
  

 Cite this work as:
 Gaussian 03, Revision C.02,
 M. J. Frisch, G. W. Trucks, H. B. Schlegel, G. E. Scuseria, 
 M. A. Robb, J. R. Cheeseman, J. A. Montgomery, Jr., T. Vreven, 
 K. N. Kudin, J. C. Burant, J. M. Millam, S. S. Iyengar, J. Tomasi, 
 V. Barone, B. Mennucci, M. Cossi, G. Scalmani, N. Rega, 
 G. A. Petersson, H. Nakatsuji, M. Hada, M. Ehara, K. Toyota, 
 R. Fukuda, J. Hasegawa, M. Ishida, T. Nakajima, Y. Honda, O. Kitao, 
 H. Nakai, M. Klene, X. Li, J. E. Knox, H. P. Hratchian, J. B. Cross, 
 C. Adamo, J. Jaramillo, R. Gomperts, R. E. Stratmann, O. Yazyev, 
 A. J. Austin, R. Cammi, C. Pomelli, J. W. Ochterski, P. Y. Ayala, 
 K. Morokuma, G. A. Voth, P. Salvador, J. J. Dannenberg, 
 V. G. Zakrzewski, S. Dapprich, A. D. Daniels, M. C. Strain, 
 O. Farkas, D. K. Malick, A. D. Rabuck, K. Raghavachari, 
 J. B. Foresman, J. V. Ortiz, Q. Cui, A. G. Baboul, S. Clifford, 
 J. Cioslowski, B. B. Stefanov, G. Liu, A. Liashenko, P. Piskorz, 
 I. Komaromi, R. L. Martin, D. J. Fox, T. Keith, M. A. Al-Laham, 
 C. Y. Peng, A. Nanayakkara, M. Challacombe, P. M. W. Gill, 
 B. Johnson, W. Chen, M. W. Wong, C. Gonzalez, and J. A. Pople, 
 Gaussian, Inc., Wallingford CT, 2004.
 
 ******************************************
 Gaussian 03:  SGI64-G03RevC.02 12-Jun-2004
                29-Jan-2006 
 ******************************************
 ----------------------------------------------------------------------
 # HF AUG-cc-pVTZ 6D 10F SCF(Conver=10) Symmetry(PG=D2) Pop=Full GFinpu
 t Test
 ----------------------------------------------------------------------
 1/38=1/1;
 2/17=6,18=5,19=4914025465764651040,40=1/2;
 3/5=16,6=1,7=10,8=22,11=9,16=1,24=10,25=1,30=1/1,2,3;
 4//1;
 5/5=2,6=10,38=5/2;
 6/7=3,28=1/1;
 99/5=1,9=1/99;
 ----
 SiF4
 ----
 Symbolic Z-matrix:
 Charge =  0 Multiplicity = 1
 Si                    0.        0.        0. 
 F                     1.00962   0.84103   0.84103 
 F                     1.00962  -0.84103  -0.84103 
 F                    -1.00962   0.84103  -0.84103 
 F                    -1.00962  -0.84103   0.84103 
 
                          Input orientation:                          
 ---------------------------------------------------------------------
 Center     Atomic     Atomic              Coordinates (Angstroms)
 Number     Number      Type              X           Y           Z
 ---------------------------------------------------------------------
    1         14             0        0.000000    0.000000    0.000000
    2          9             0        1.009620    0.841030    0.841030
    3          9             0        1.009620   -0.841030   -0.841030
    4          9             0       -1.009620    0.841030   -0.841030
    5          9             0       -1.009620   -0.841030    0.841030
 ---------------------------------------------------------------------
                    Distance matrix (angstroms):
                    1          2          3          4          5
     1  Si   0.000000
     2  F    1.560127   0.000000
     3  F    1.560127   2.378792   0.000000
     4  F    1.560127   2.628052   2.628052   0.000000
     5  F    1.560127   2.628052   2.628052   2.378792   0.000000
 Symm:  InNGrp=D2   InAxis=0.
 This structure is nearly, but not quite of a higher symmetry.
 Consider Symm=Loose if the higher symmetry is desired.
 Stoichiometry    F4Si
 Framework group  D2[O(Si),X(F4)]
 Deg. of freedom     3
 Full point group                 D2      NOp   4
 Largest Abelian subgroup         D2      NOp   4
 Largest concise Abelian subgroup D2      NOp   4
                         Standard orientation:                         
 ---------------------------------------------------------------------
 Center     Atomic     Atomic              Coordinates (Angstroms)
 Number     Number      Type              X           Y           Z
 ---------------------------------------------------------------------
    1         14             0        0.000000    0.000000    0.000000
    2          9             0        0.841030    0.841030    1.009620
    3          9             0       -0.841030   -0.841030    1.009620
    4          9             0        0.841030   -0.841030   -1.009620
    5          9             0       -0.841030    0.841030   -1.009620
 ---------------------------------------------------------------------
 Rotational constants (GHZ):      4.7009662      3.8515210      3.8515210
 Standard basis: Aug-CC-pVTZ (6D, 10F)
 AO basis set in the form of general basis input:
  1 0
 S  11 1.00       0.000000000000
      0.2549000000D+06  0.6259454587D-04
      0.3819000000D+05  0.4862070436D-03
      0.8690000000D+04  0.2548609738D-02
      0.2462000000D+04  0.1060105144D-01
      0.8048000000D+03  0.3692994503D-01
      0.2913000000D+03  0.1076356905D+00
      0.1136000000D+03  0.2483387413D+00
      0.4675000000D+02  0.3917442532D+00
      0.1982000000D+02  0.3030081137D+00
      0.7708000000D+01  0.5545673652D-01
      0.3340000000D+01 -0.7135272198D-02
 S  11 1.00       0.000000000000
      0.2549000000D+06  0.4011785433D-06
      0.3819000000D+05  0.3058719263D-05
      0.8690000000D+04  0.1502997647D-04
      0.2462000000D+04  0.4502390871D-04
      0.2913000000D+03 -0.1266002594D-02
      0.1136000000D+03 -0.1006734813D-01
      0.4675000000D+02 -0.4737784997D-01
      0.1982000000D+02 -0.9744253676D-01
      0.7708000000D+01  0.9449527074D-01
      0.3340000000D+01  0.5426692785D+00
      0.1402000000D+01  0.4752526204D+00
 S  11 1.00       0.000000000000
      0.2549000000D+06 -0.9639289733D-08
      0.3819000000D+05 -0.6815112801D-07
      0.8690000000D+04 -0.5430989250D-07
      0.2462000000D+04 -0.2225080935D-05
      0.2913000000D+03 -0.3675111577D-04
      0.1136000000D+03  0.1916046946D-04
      0.1982000000D+02  0.2219009176D-02
      0.7708000000D+01 -0.3738426098D-02
      0.3340000000D+01 -0.6219870833D-01
      0.1402000000D+01 -0.3088697837D+00
      0.2070000000D+00  0.1139437590D+01
 S   1 1.00       0.000000000000
      0.4387000000D+00  0.1000000000D+01
 S   1 1.00       0.000000000000
      0.7944000000D-01  0.1000000000D+01
 P   6 1.00       0.000000000000
      0.4815000000D+03  0.2085549471D-02
      0.1139000000D+03  0.1667619837D-01
      0.3623000000D+02  0.7753893526D-01
      0.1334000000D+02  0.2313987378D+00
      0.5252000000D+01  0.4239367733D+00
      0.2120000000D+01  0.4277947460D+00
 P   6 1.00       0.000000000000
      0.4815000000D+03  0.1088933479D-04
      0.1139000000D+03 -0.1312701062D-03
      0.1334000000D+02 -0.6072647947D-02
      0.5252000000D+01 -0.3540085610D-02
      0.2120000000D+01 -0.5109971270D-01
      0.2528000000D+00  0.1014431383D+01
 P   1 1.00       0.000000000000
      0.8561000000D+00  0.1000000000D+01
 P   1 1.00       0.000000000000
      0.7889000000D-01  0.1000000000D+01
 D   1 1.00       0.000000000000
      0.1590000000D+00  0.1000000000D+01
 D   1 1.00       0.000000000000
      0.4810000000D+00  0.1000000000D+01
 F   1 1.00       0.000000000000
      0.3360000000D+00  0.1000000000D+01
 S   1 1.00       0.000000000000
      0.3300000000D-01  0.1000000000D+01
 P   1 1.00       0.000000000000
      0.2370000000D-01  0.1000000000D+01
 D   1 1.00       0.000000000000
      0.5560000000D-01  0.1000000000D+01
 F   1 1.00       0.000000000000
      0.1250000000D+00  0.1000000000D+01
 ****
  2 0
 S   7 1.00       0.000000000000
      0.1950000000D+05  0.5190024441D-03
      0.2923000000D+04  0.4015781354D-02
      0.6645000000D+03  0.2067746110D-01
      0.1875000000D+03  0.8086901703D-01
      0.6062000000D+02  0.2358075463D+00
      0.2142000000D+02  0.4425823060D+00
      0.7950000000D+01  0.3569628672D+00
 S   7 1.00       0.000000000000
      0.1950000000D+05  0.9720399405D-05
      0.2923000000D+04  0.6332758211D-04
      0.6645000000D+03  0.2887812714D-03
      0.6062000000D+02 -0.7084819492D-02
      0.2142000000D+02 -0.6294853050D-01
      0.7950000000D+01 -0.1638259029D+00
      0.8815000000D+00  0.1071183841D+01
 S   1 1.00       0.000000000000
      0.2257000000D+01  0.1000000000D+01
 S   1 1.00       0.000000000000
      0.3041000000D+00  0.1000000000D+01
 P   3 1.00       0.000000000000
      0.4388000000D+02  0.4190462069D-01
      0.9926000000D+01  0.2626978417D+00
      0.2930000000D+01  0.7977593735D+00
 P   1 1.00       0.000000000000
      0.9132000000D+00  0.1000000000D+01
 P   1 1.00       0.000000000000
      0.2672000000D+00  0.1000000000D+01
 D   1 1.00       0.000000000000
      0.3107000000D+01  0.1000000000D+01
 D   1 1.00       0.000000000000
      0.8550000000D+00  0.1000000000D+01
 F   1 1.00       0.000000000000
      0.1917000000D+01  0.1000000000D+01
 S   1 1.00       0.000000000000
      0.9158000000D-01  0.1000000000D+01
 P   1 1.00       0.000000000000
      0.7361000000D-01  0.1000000000D+01
 D   1 1.00       0.000000000000
      0.2920000000D+00  0.1000000000D+01
 F   1 1.00       0.000000000000
      0.7240000000D+00  0.1000000000D+01
 ****
  3 0
 S   7 1.00       0.000000000000
      0.1950000000D+05  0.5190024441D-03
      0.2923000000D+04  0.4015781354D-02
      0.6645000000D+03  0.2067746110D-01
      0.1875000000D+03  0.8086901703D-01
      0.6062000000D+02  0.2358075463D+00
      0.2142000000D+02  0.4425823060D+00
      0.7950000000D+01  0.3569628672D+00
 S   7 1.00       0.000000000000
      0.1950000000D+05  0.9720399405D-05
      0.2923000000D+04  0.6332758211D-04
      0.6645000000D+03  0.2887812714D-03
      0.6062000000D+02 -0.7084819492D-02
      0.2142000000D+02 -0.6294853050D-01
      0.7950000000D+01 -0.1638259029D+00
      0.8815000000D+00  0.1071183841D+01
 S   1 1.00       0.000000000000
      0.2257000000D+01  0.1000000000D+01
 S   1 1.00       0.000000000000
      0.3041000000D+00  0.1000000000D+01
 P   3 1.00       0.000000000000
      0.4388000000D+02  0.4190462069D-01
      0.9926000000D+01  0.2626978417D+00
      0.2930000000D+01  0.7977593735D+00
 P   1 1.00       0.000000000000
      0.9132000000D+00  0.1000000000D+01
 P   1 1.00       0.000000000000
      0.2672000000D+00  0.1000000000D+01
 D   1 1.00       0.000000000000
      0.3107000000D+01  0.1000000000D+01
 D   1 1.00       0.000000000000
      0.8550000000D+00  0.1000000000D+01
 F   1 1.00       0.000000000000
      0.1917000000D+01  0.1000000000D+01
 S   1 1.00       0.000000000000
      0.9158000000D-01  0.1000000000D+01
 P   1 1.00       0.000000000000
      0.7361000000D-01  0.1000000000D+01
 D   1 1.00       0.000000000000
      0.2920000000D+00  0.1000000000D+01
 F   1 1.00       0.000000000000
      0.7240000000D+00  0.1000000000D+01
 ****
  4 0
 S   7 1.00       0.000000000000
      0.1950000000D+05  0.5190024441D-03
      0.2923000000D+04  0.4015781354D-02
      0.6645000000D+03  0.2067746110D-01
      0.1875000000D+03  0.8086901703D-01
      0.6062000000D+02  0.2358075463D+00
      0.2142000000D+02  0.4425823060D+00
      0.7950000000D+01  0.3569628672D+00
 S   7 1.00       0.000000000000
      0.1950000000D+05  0.9720399405D-05
      0.2923000000D+04  0.6332758211D-04
      0.6645000000D+03  0.2887812714D-03
      0.6062000000D+02 -0.7084819492D-02
      0.2142000000D+02 -0.6294853050D-01
      0.7950000000D+01 -0.1638259029D+00
      0.8815000000D+00  0.1071183841D+01
 S   1 1.00       0.000000000000
      0.2257000000D+01  0.1000000000D+01
 S   1 1.00       0.000000000000
      0.3041000000D+00  0.1000000000D+01
 P   3 1.00       0.000000000000
      0.4388000000D+02  0.4190462069D-01
      0.9926000000D+01  0.2626978417D+00
      0.2930000000D+01  0.7977593735D+00
 P   1 1.00       0.000000000000
      0.9132000000D+00  0.1000000000D+01
 P   1 1.00       0.000000000000
      0.2672000000D+00  0.1000000000D+01
 D   1 1.00       0.000000000000
      0.3107000000D+01  0.1000000000D+01
 D   1 1.00       0.000000000000
      0.8550000000D+00  0.1000000000D+01
 F   1 1.00       0.000000000000
      0.1917000000D+01  0.1000000000D+01
 S   1 1.00       0.000000000000
      0.9158000000D-01  0.1000000000D+01
 P   1 1.00       0.000000000000
      0.7361000000D-01  0.1000000000D+01
 D   1 1.00       0.000000000000
      0.2920000000D+00  0.1000000000D+01
 F   1 1.00       0.000000000000
      0.7240000000D+00  0.1000000000D+01
 ****
  5 0
 S   7 1.00       0.000000000000
      0.1950000000D+05  0.5190024441D-03
      0.2923000000D+04  0.4015781354D-02
      0.6645000000D+03  0.2067746110D-01
      0.1875000000D+03  0.8086901703D-01
      0.6062000000D+02  0.2358075463D+00
      0.2142000000D+02  0.4425823060D+00
      0.7950000000D+01  0.3569628672D+00
 S   7 1.00       0.000000000000
      0.1950000000D+05  0.9720399405D-05
      0.2923000000D+04  0.6332758211D-04
      0.6645000000D+03  0.2887812714D-03
      0.6062000000D+02 -0.7084819492D-02
      0.2142000000D+02 -0.6294853050D-01
      0.7950000000D+01 -0.1638259029D+00
      0.8815000000D+00  0.1071183841D+01
 S   1 1.00       0.000000000000
      0.2257000000D+01  0.1000000000D+01
 S   1 1.00       0.000000000000
      0.3041000000D+00  0.1000000000D+01
 P   3 1.00       0.000000000000
      0.4388000000D+02  0.4190462069D-01
      0.9926000000D+01  0.2626978417D+00
      0.2930000000D+01  0.7977593735D+00
 P   1 1.00       0.000000000000
      0.9132000000D+00  0.1000000000D+01
 P   1 1.00       0.000000000000
      0.2672000000D+00  0.1000000000D+01
 D   1 1.00       0.000000000000
      0.3107000000D+01  0.1000000000D+01
 D   1 1.00       0.000000000000
      0.8550000000D+00  0.1000000000D+01
 F   1 1.00       0.000000000000
      0.1917000000D+01  0.1000000000D+01
 S   1 1.00       0.000000000000
      0.9158000000D-01  0.1000000000D+01
 P   1 1.00       0.000000000000
      0.7361000000D-01  0.1000000000D+01
 D   1 1.00       0.000000000000
      0.2920000000D+00  0.1000000000D+01
 F   1 1.00       0.000000000000
      0.7240000000D+00  0.1000000000D+01
 ****

 There are    72 symmetry adapted basis functions of A   symmetry.
 There are    69 symmetry adapted basis functions of B1  symmetry.
 There are    69 symmetry adapted basis functions of B2  symmetry.
 There are    69 symmetry adapted basis functions of B3  symmetry.
 Integral buffers will be    131072 words long.
 Raffenetti 1 integral format.
 Two-electron integral symmetry is turned on.
   279 basis functions,   411 primitive gaussians,   279 cartesian basis functions
    25 alpha electrons       25 beta electrons
       nuclear repulsion energy       272.2287113267 Hartrees.
 NAtoms=    5 NActive=    5 NUniq=    2 SFac= 5.66D+00 NAtFMM=   60 Big=F
 One-electron integrals computed using PRISM.
 NBasis=   279 RedAO= T  NBF=    72    69    69    69
 NBsUse=   279 1.00D-06 NBFU=    72    69    69    69
 Harris functional with IExCor=  205 diagonalized for initial guess.
 ExpMin= 2.37D-02 ExpMax= 2.55D+05 ExpMxC= 2.46D+03 IAcc=3 IRadAn=         5 AccDes= 0.00D+00
 HarFok:  IExCor= 205 AccDes= 0.00D+00 IRadAn=         5 IDoV=1
 ScaDFX=  1.000000  1.000000  1.000000  1.000000
 Initial guess orbital symmetries:
       Occupied  (A) (A) (B1) (B2) (B3) (A) (B1) (B3) (B2) (A)
                 (B1) (B3) (B2) (A) (B1) (B2) (B3) (A) (B1) (B2)
                 (B3) (A) (B1) (B2) (B3)
       Virtual   (A) (B2) (B3) (B1) (A) (B2) (B3) (B1) (B2) (B3)
                 (A) (A) (B1) (A) (B1) (A) (B3) (B2) (B2) (B3)
                 (B1) (B2) (B3) (B1) (B1) (A) (A) (B2) (B3) (A)
                 (B2) (B3) (B1) (A) (A) (A) (B2) (B3) (B1) (B3)
                 (B2) (B2) (B3) (B1) (B1) (A) (B1) (A) (B2) (B3)
                 (A) (B2) (B3) (B1) (B1) (A) (A) (B2) (B3) (A)
                 (B1) (B3) (B2) (B1) (B2) (B3) (A) (B2) (B3) (A)
                 (B2) (B3) (B1) (A) (B1) (B1) (B3) (B2) (B1) (B3)
                 (B2) (B1) (A) (B2) (B3) (A) (A) (B2) (B3) (B1)
                 (B2) (B3) (A) (B1) (A) (B1) (B2) (B3) (B2) (B3)
                 (B1) (B3) (B2) (B1) (A) (A) (B3) (B2) (B1) (B2)
                 (B3) (A) (B1) (B1) (A) (B2) (B3) (B1) (A) (B3)
                 (B2) (B2) (B3) (A) (B1) (B1) (B2) (B3) (A) (A)
                 (B3) (B2) (B1) (A) (B2) (B3) (B1) (A) (A) (A)
                 (B1) (B2) (B3) (B1) (B2) (B3) (A) (B2) (B3) (B1)
                 (B1) (A) (A) (B3) (B2) (A) (B1) (B3) (B2) (B3)
                 (B2) (B1) (B3) (B2) (B1) (A) (B3) (B2) (B1) (A)
                 (B2) (B3) (B2) (B3) (B1) (B1) (B3) (B2) (A) (B1)
                 (A) (B1) (B2) (B3) (A) (A) (B1) (A) (B3) (B2)
                 (B2) (B3) (B1) (A) (B1) (A) (B3) (B2) (B1) (B2)
                 (B3) (A) (A) (A) (A) (B1) (B1) (B2) (B3) (B2)
                 (B3) (B1) (B2) (B3) (B1) (B2) (B3) (A) (A) (B2)
                 (B3) (B1) (B1) (A) (B3) (B2) (B3) (B2) (A) (B1)
                 (B2) (B3) (B1) (A) (B2) (B3) (B1) (B2) (B3) (B1)
                 (B2) (B3) (A) (B1) (B1) (A) (A) (B2) (B3) (A)
                 (B2) (B3) (B1) (A)
 The electronic state of the initial guess is 1-A.
 Requested convergence on RMS density matrix=1.00D-10 within 128 cycles.
 Requested convergence on MAX density matrix=1.00D-08.
 Requested convergence on             energy=1.00D-08.
 No special actions if energy rises.
 SCF Done:  E(RHF) =  -687.154813832     A.U. after   12 cycles
             Convg  =    0.5052D-10             -V/T =  2.0003
             S**2   =   0.0000

 **********************************************************************

            Population analysis using the SCF density.

 **********************************************************************

 Orbital symmetries:
       Occupied  (A) (B2) (B3) (B1) (A) (A) (B3) (B2) (B1) (A)
                 (B1) (B2) (B3) (A) (B1) (B3) (B2) (A) (A) (B1)
                 (B2) (B3) (B1) (B3) (B2)
       Virtual   (A) (B3) (B2) (B1) (A) (B1) (B3) (B2) (A) (A)
                 (B2) (B3) (B1) (A) (B1) (B2) (B3) (B1) (B2) (B3)
                 (A) (B2) (B3) (B1) (A) (A) (B1) (B2) (B3) (B3)
                 (B2) (B1) (A) (A) (A) (B2) (B3) (B1) (A) (B2)
                 (B3) (B2) (B3) (B1) (B1) (A) (B1) (A) (B3) (B2)
                 (A) (A) (B3) (B2) (B1) (A) (B1) (B2) (B3) (A)
                 (B1) (B2) (B3) (B1) (B3) (B2) (A) (B2) (B3) (B1)
                 (A) (A) (B2) (B3) (B1) (B2) (B3) (B1) (B1) (B3)
                 (B2) (B1) (A) (B3) (B2) (A) (A) (B1) (B3) (B2)
                 (A) (B3) (B2) (B1) (A) (B1) (B2) (B3) (B3) (B2)
                 (B1) (B1) (A) (B3) (B2) (A) (B2) (B3) (B1) (B2)
                 (B3) (B1) (A) (B1) (B3) (B2) (A) (A) (B1) (B3)
                 (B2) (B1) (B3) (B2) (A) (B1) (B2) (B3) (A) (A)
                 (B3) (B2) (B1) (A) (B3) (B2) (B1) (A) (A) (A)
                 (B1) (B2) (B3) (B1) (B3) (B2) (A) (B2) (B3) (B1)
                 (B1) (A) (B3) (B2) (A) (A) (B1) (B3) (B2) (B3)
                 (B2) (B1) (B3) (B2) (A) (B1) (B3) (B2) (B1) (A)
                 (B2) (B3) (B1) (B2) (B3) (B1) (B2) (B3) (A) (B1)
                 (A) (B1) (B3) (B2) (A) (A) (B1) (A) (B3) (B2)
                 (B2) (B3) (B1) (A) (B1) (A) (B2) (B3) (B1) (B2)
                 (B3) (A) (A) (B1) (B1) (B3) (B2) (A) (A) (B3)
                 (B2) (B1) (B3) (B2) (A) (B1) (B2) (B3) (B1) (B3)
                 (B2) (A) (B1) (B3) (B2) (A) (B3) (B2) (A) (B1)
                 (B3) (B2) (B1) (A) (B3) (B2) (B1) (B3) (B2) (B1)
                 (B2) (B3) (A) (B1) (B1) (A) (A) (B3) (B2) (A)
                 (B2) (B3) (B1) (A)
 The electronic state is 1-A.
 Alpha  occ. eigenvalues --  -68.93775 -26.33597 -26.33597 -26.33597 -26.33595
 Alpha  occ. eigenvalues --   -6.26969  -4.37920  -4.37920  -4.37846  -1.67511
 Alpha  occ. eigenvalues --   -1.64345  -1.63210  -1.63210  -0.86011  -0.79252
 Alpha  occ. eigenvalues --   -0.77650  -0.77650  -0.73907  -0.71892  -0.71343
 Alpha  occ. eigenvalues --   -0.71210  -0.71210  -0.67966  -0.67403  -0.67403
 Alpha virt. eigenvalues --    0.03417   0.05116   0.05116   0.05365   0.13613
 Alpha virt. eigenvalues --    0.14111   0.14342   0.14342   0.16166   0.17312
 Alpha virt. eigenvalues --    0.19387   0.19387   0.20180   0.21666   0.24328
 Alpha virt. eigenvalues --    0.24355   0.24355   0.26536   0.26881   0.26881
 Alpha virt. eigenvalues --    0.30033   0.31520   0.31520   0.34592   0.36008
 Alpha virt. eigenvalues --    0.38189   0.38489   0.40881   0.40881   0.43079
 Alpha virt. eigenvalues --    0.43079   0.45890   0.49023   0.51299   0.54117
 Alpha virt. eigenvalues --    0.57033   0.57033   0.60326   0.61032   0.61532
 Alpha virt. eigenvalues --    0.61532   0.63438   0.63438   0.64448   0.66944
 Alpha virt. eigenvalues --    0.68804   0.89735   0.92396   0.93001   0.93001
 Alpha virt. eigenvalues --    0.94991   0.95752   0.97471   0.97471   0.98534
 Alpha virt. eigenvalues --    0.99332   1.02115   1.04249   1.04249   1.06535
 Alpha virt. eigenvalues --    1.10422   1.11382   1.11382   1.13798   1.20777
 Alpha virt. eigenvalues --    1.20777   1.23265   1.24248   1.24248   1.26872
 Alpha virt. eigenvalues --    1.28366   1.28617   1.31388   1.31388   1.33215
 Alpha virt. eigenvalues --    1.35097   1.35097   1.38395   1.39783   1.41144
 Alpha virt. eigenvalues --    1.41144   1.44027   1.47718   1.55936   1.55936
 Alpha virt. eigenvalues --    1.75622   1.79939   1.80125   1.80468   1.80468
 Alpha virt. eigenvalues --    1.81725   1.84927   1.84927   1.87815   1.93640
 Alpha virt. eigenvalues --    1.98509   2.07376   2.07376   2.17375   2.17375
 Alpha virt. eigenvalues --    2.20457   2.72254   2.72838   2.73103   2.73103
 Alpha virt. eigenvalues --    2.76207   2.81536   2.81536   2.83556   2.88410
 Alpha virt. eigenvalues --    2.88410   2.88656   2.89002   2.91204   2.91532
 Alpha virt. eigenvalues --    2.91532   2.93212   2.93346   2.93881   2.95329
 Alpha virt. eigenvalues --    2.95329   2.98538   2.99015   2.99015   2.99640
 Alpha virt. eigenvalues --    3.01830   3.02845   3.02845   3.06677   3.09540
 Alpha virt. eigenvalues --    3.12440   3.12440   3.17941   3.19492   3.21643
 Alpha virt. eigenvalues --    3.21643   3.30856   3.31273   3.34809   3.42266
 Alpha virt. eigenvalues --    3.49083   3.49110   3.49110   3.55140   3.60423
 Alpha virt. eigenvalues --    3.60423   3.67835   3.73535   3.73535   3.76881
 Alpha virt. eigenvalues --    3.78886   3.85362   3.88708   3.88708   3.90987
 Alpha virt. eigenvalues --    3.94250   4.02087   4.04621   4.04621   4.08207
 Alpha virt. eigenvalues --    4.08207   4.19044   4.30638   4.30638   4.37423
 Alpha virt. eigenvalues --    4.38827   5.33535   5.33535   5.58465   7.18601
 Alpha virt. eigenvalues --    7.22380   7.22380   7.37887   7.55575   7.55575
 Alpha virt. eigenvalues --    7.56336   7.62960   7.62960   7.67374   7.67725
 Alpha virt. eigenvalues --    7.75402   7.84931   8.00674   8.00674   8.43844
 Alpha virt. eigenvalues --    8.75392   8.78605   8.80010   8.80140   8.80140
 Alpha virt. eigenvalues --    8.84994   8.84994   8.86257   8.88597   8.88772
 Alpha virt. eigenvalues --    8.89560   9.02007   9.02007   9.06018   9.10295
 Alpha virt. eigenvalues --    9.10295   9.15195   9.19725   9.28183   9.30636
 Alpha virt. eigenvalues --    9.31664   9.31664   9.31899   9.36395   9.37848
 Alpha virt. eigenvalues --    9.37848   9.37989   9.41956   9.41956   9.42882
 Alpha virt. eigenvalues --    9.44630   9.44637   9.44637   9.47884   9.48534
 Alpha virt. eigenvalues --    9.48534   9.50504   9.57022   9.57370   9.57370
 Alpha virt. eigenvalues --    9.62887   9.63047   9.63047   9.84930   9.95622
 Alpha virt. eigenvalues --   10.06938  10.06938  10.17948  15.05498  15.52417
 Alpha virt. eigenvalues --   15.52417  15.77289  18.89189  18.89189  18.94813
 Alpha virt. eigenvalues --   19.18681  19.18681  19.41271  19.42938  19.72892
 Alpha virt. eigenvalues --   19.76213  20.12699  20.35783  20.35783  22.41622
 Alpha virt. eigenvalues --   23.96660  23.96660  23.96744  24.47095
     Molecular Orbital Coefficients
                           1         2         3         4         5
                        (A)--O    (B2)--O   (B3)--O   (B1)--O   (A)--O
     EIGENVALUES --   -68.93775 -26.33597 -26.33597 -26.33597 -26.33595
   1 1   Si 1S          0.99854   0.00000   0.00000   0.00000   0.00001
   2        2S          0.00507   0.00000   0.00000   0.00000  -0.00007
   3        3S         -0.00353   0.00000   0.00000   0.00000  -0.00036
   4        4S         -0.00042   0.00000   0.00000   0.00000  -0.00102
   5        5S         -0.00136   0.00000   0.00000   0.00000   0.02624
   6        6PX         0.00000   0.00000   0.00000   0.00000   0.00000
   7        6PY         0.00000   0.00000   0.00000   0.00000   0.00000
   8        6PZ         0.00000   0.00000   0.00000  -0.00002   0.00000
   9        7PX         0.00000   0.00000  -0.00015   0.00000   0.00000
  10        7PY         0.00000  -0.00015   0.00000   0.00000   0.00000
  11        7PZ         0.00000   0.00000   0.00000  -0.00074   0.00000
  12        8PX         0.00000   0.00000  -0.00025   0.00000   0.00000
  13        8PY         0.00000  -0.00025   0.00000   0.00000   0.00000
  14        8PZ         0.00000   0.00000   0.00000  -0.00028   0.00000
  15        9PX         0.00000   0.00000   0.01152   0.00000   0.00000
  16        9PY         0.00000   0.01152   0.00000   0.00000   0.00000
  17        9PZ         0.00000   0.00000   0.00000   0.01705   0.00000
  18       10XX         0.00033   0.00000   0.00000   0.00000  -0.00131
  19       10YY         0.00033   0.00000   0.00000   0.00000  -0.00131
  20       10ZZ         0.00028   0.00000   0.00000   0.00000  -0.00081
  21       10XY         0.00000   0.00000   0.00000  -0.00001   0.00000
  22       10XZ         0.00000  -0.00029   0.00000   0.00000   0.00000
  23       10YZ         0.00000   0.00000  -0.00029   0.00000   0.00000
  24       11XX         0.00083   0.00000   0.00000   0.00000   0.00002
  25       11YY         0.00083   0.00000   0.00000   0.00000   0.00002
  26       11ZZ         0.00079   0.00000   0.00000   0.00000   0.00001
  27       11XY         0.00000   0.00000   0.00000  -0.00003   0.00000
  28       11XZ         0.00000  -0.00001   0.00000   0.00000   0.00000
  29       11YZ         0.00000   0.00000  -0.00001   0.00000   0.00000
  30       12XXX        0.00000   0.00000  -0.00066   0.00000   0.00000
  31       12YYY        0.00000  -0.00066   0.00000   0.00000   0.00000
  32       12ZZZ        0.00000   0.00000   0.00000  -0.00065   0.00000
  33       12XYY        0.00000   0.00000  -0.00054   0.00000   0.00000
  34       12XXY        0.00000  -0.00054   0.00000   0.00000   0.00000
  35       12XXZ        0.00000   0.00000   0.00000  -0.00058   0.00000
  36       12XZZ        0.00000   0.00000  -0.00055   0.00000   0.00000
  37       12YZZ        0.00000  -0.00055   0.00000   0.00000   0.00000
  38       12YYZ        0.00000   0.00000   0.00000  -0.00058   0.00000
  39       12XYZ       -0.00016   0.00000   0.00000   0.00000   0.00010
  40       13S         -0.00003   0.00000   0.00000   0.00000  -0.00420
  41       14PX         0.00000   0.00000  -0.00009   0.00000   0.00000
  42       14PY         0.00000  -0.00009   0.00000   0.00000   0.00000
  43       14PZ         0.00000   0.00000   0.00000  -0.00007   0.00000
  44       15XX         0.00003   0.00000   0.00000   0.00000   0.00160
  45       15YY         0.00003   0.00000   0.00000   0.00000   0.00160
  46       15ZZ         0.00005   0.00000   0.00000   0.00000   0.00189
  47       15XY         0.00000   0.00000   0.00000   0.00077   0.00000
  48       15XZ         0.00000   0.00060   0.00000   0.00000   0.00000
  49       15YZ         0.00000   0.00000   0.00060   0.00000   0.00000
  50       16XXX        0.00000   0.00000  -0.00345   0.00000   0.00000
  51       16YYY        0.00000  -0.00345   0.00000   0.00000   0.00000
  52       16ZZZ        0.00000   0.00000   0.00000  -0.00505   0.00000
  53       16XYY        0.00000   0.00000  -0.00183   0.00000   0.00000
  54       16XXY        0.00000  -0.00183   0.00000   0.00000   0.00000
  55       16XXZ        0.00000   0.00000   0.00000  -0.00262   0.00000
  56       16XZZ        0.00000   0.00000  -0.00186   0.00000   0.00000
  57       16YZZ        0.00000  -0.00186   0.00000   0.00000   0.00000
  58       16YYZ        0.00000   0.00000   0.00000  -0.00262   0.00000
  59       16XYZ       -0.00006   0.00000   0.00000   0.00000   0.00040
  60 2   F  1S          0.00000   0.48811   0.48811   0.48811   0.48811
  61        2S          0.00003  -0.00842  -0.00842  -0.00845  -0.00839
  62        3S          0.00001   0.02515   0.02515   0.02520   0.02511
  63        4S          0.00034  -0.01041  -0.01041  -0.01084  -0.01087
  64        5PX         0.00000  -0.00043  -0.00042  -0.00043  -0.00043
  65        5PY         0.00000  -0.00042  -0.00043  -0.00043  -0.00043
  66        5PZ         0.00001  -0.00058  -0.00058  -0.00058  -0.00059
  67        6PX         0.00000   0.00090   0.00085   0.00091   0.00095
  68        6PY         0.00000   0.00085   0.00090   0.00091   0.00095
  69        6PZ         0.00001   0.00121   0.00121   0.00120   0.00133
  70        7PX        -0.00024   0.00078   0.00044   0.00086   0.00071
  71        7PY        -0.00024   0.00044   0.00078   0.00086   0.00071
  72        7PZ        -0.00033   0.00087   0.00087   0.00065   0.00090
  73        8XX         0.00000   0.00146   0.00146   0.00148   0.00145
  74        8YY         0.00000   0.00146   0.00146   0.00148   0.00145
  75        8ZZ        -0.00001   0.00145   0.00145   0.00147   0.00145
  76        8XY         0.00000   0.00000   0.00000   0.00000   0.00000
  77        8XZ         0.00000  -0.00001  -0.00001  -0.00001   0.00000
  78        8YZ         0.00000  -0.00001  -0.00001  -0.00001   0.00000
  79        9XX         0.00000   0.00470   0.00471   0.00476   0.00465
  80        9YY         0.00000   0.00471   0.00470   0.00476   0.00465
  81        9ZZ         0.00000   0.00472   0.00472   0.00480   0.00464
  82        9XY         0.00000   0.00004   0.00004   0.00002   0.00001
  83        9XZ         0.00000   0.00003   0.00004   0.00005   0.00000
  84        9YZ         0.00000   0.00004   0.00003   0.00005   0.00000
  85       10XXX        0.00000  -0.00036  -0.00033  -0.00036  -0.00036
  86       10YYY        0.00000  -0.00033  -0.00036  -0.00036  -0.00036
  87       10ZZZ        0.00001  -0.00048  -0.00048  -0.00047  -0.00052
  88       10XYY        0.00000  -0.00017  -0.00016  -0.00017  -0.00016
  89       10XXY        0.00000  -0.00016  -0.00017  -0.00017  -0.00016
  90       10XXZ        0.00000  -0.00022  -0.00021  -0.00021  -0.00023
  91       10XZZ        0.00000  -0.00018  -0.00015  -0.00016  -0.00017
  92       10YZZ        0.00000  -0.00015  -0.00018  -0.00016  -0.00017
  93       10YYZ        0.00000  -0.00021  -0.00022  -0.00021  -0.00023
  94       10XYZ        0.00000  -0.00001  -0.00001  -0.00001  -0.00001
  95       11S          0.00017  -0.00539  -0.00539  -0.00630  -0.00756
  96       12PX        -0.00001   0.00050   0.00015   0.00054   0.00073
  97       12PY        -0.00001   0.00015   0.00050   0.00054   0.00073
  98       12PZ        -0.00003   0.00061   0.00061   0.00014   0.00091
  99       13XX         0.00010   0.00226   0.00235   0.00229   0.00219
 100       13YY         0.00010   0.00235   0.00226   0.00229   0.00219
 101       13ZZ         0.00015   0.00220   0.00220   0.00241   0.00217
 102       13XY         0.00005  -0.00008  -0.00008  -0.00021  -0.00010
 103       13XZ         0.00008  -0.00022  -0.00005  -0.00008  -0.00012
 104       13YZ         0.00008  -0.00005  -0.00022  -0.00008  -0.00012
 105       14XXX        0.00002  -0.00050  -0.00043  -0.00047  -0.00042
 106       14YYY        0.00002  -0.00043  -0.00050  -0.00047  -0.00042
 107       14ZZZ        0.00002  -0.00061  -0.00061  -0.00060  -0.00057
 108       14XYY        0.00001  -0.00021  -0.00017  -0.00019  -0.00019
 109       14XXY        0.00001  -0.00017  -0.00021  -0.00019  -0.00019
 110       14XXZ        0.00001  -0.00024  -0.00029  -0.00026  -0.00026
 111       14XZZ        0.00000  -0.00018  -0.00020  -0.00023  -0.00017
 112       14YZZ        0.00000  -0.00020  -0.00018  -0.00023  -0.00017
 113       14YYZ        0.00001  -0.00029  -0.00024  -0.00026  -0.00026
 114       14XYZ       -0.00001   0.00000   0.00000   0.00001   0.00000
 115 3   F  1S          0.00000  -0.48811  -0.48811   0.48811   0.48811
 116        2S          0.00003   0.00842   0.00842  -0.00845  -0.00839
 117        3S          0.00001  -0.02515  -0.02515   0.02520   0.02511
 118        4S          0.00034   0.01041   0.01041  -0.01084  -0.01087
 119        5PX         0.00000  -0.00043  -0.00042   0.00043   0.00043
 120        5PY         0.00000  -0.00042  -0.00043   0.00043   0.00043
 121        5PZ         0.00001   0.00058   0.00058  -0.00058  -0.00059
 122        6PX         0.00000   0.00090   0.00085  -0.00091  -0.00095
 123        6PY         0.00000   0.00085   0.00090  -0.00091  -0.00095
 124        6PZ         0.00001  -0.00121  -0.00121   0.00120   0.00133
 125        7PX         0.00024   0.00078   0.00044  -0.00086  -0.00071
 126        7PY         0.00024   0.00044   0.00078  -0.00086  -0.00071
 127        7PZ        -0.00033  -0.00087  -0.00087   0.00065   0.00090
 128        8XX         0.00000  -0.00146  -0.00146   0.00148   0.00145
 129        8YY         0.00000  -0.00146  -0.00146   0.00148   0.00145
 130        8ZZ        -0.00001  -0.00145  -0.00145   0.00147   0.00145
 131        8XY         0.00000   0.00000   0.00000   0.00000   0.00000
 132        8XZ         0.00000  -0.00001  -0.00001   0.00001   0.00000
 133        8YZ         0.00000  -0.00001  -0.00001   0.00001   0.00000
 134        9XX         0.00000  -0.00470  -0.00471   0.00476   0.00465
 135        9YY         0.00000  -0.00471  -0.00470   0.00476   0.00465
 136        9ZZ         0.00000  -0.00472  -0.00472   0.00480   0.00464
 137        9XY         0.00000  -0.00004  -0.00004   0.00002   0.00001
 138        9XZ         0.00000   0.00003   0.00004  -0.00005   0.00000
 139        9YZ         0.00000   0.00004   0.00003  -0.00005   0.00000
 140       10XXX        0.00000  -0.00036  -0.00033   0.00036   0.00036
 141       10YYY        0.00000  -0.00033  -0.00036   0.00036   0.00036
 142       10ZZZ        0.00001   0.00048   0.00048  -0.00047  -0.00052
 143       10XYY        0.00000  -0.00017  -0.00016   0.00017   0.00016
 144       10XXY        0.00000  -0.00016  -0.00017   0.00017   0.00016
 145       10XXZ        0.00000   0.00022   0.00021  -0.00021  -0.00023
 146       10XZZ        0.00000  -0.00018  -0.00015   0.00016   0.00017
 147       10YZZ        0.00000  -0.00015  -0.00018   0.00016   0.00017
 148       10YYZ        0.00000   0.00021   0.00022  -0.00021  -0.00023
 149       10XYZ        0.00000   0.00001   0.00001  -0.00001  -0.00001
 150       11S          0.00017   0.00539   0.00539  -0.00630  -0.00756
 151       12PX         0.00001   0.00050   0.00015  -0.00054  -0.00073
 152       12PY         0.00001   0.00015   0.00050  -0.00054  -0.00073
 153       12PZ        -0.00003  -0.00061  -0.00061   0.00014   0.00091
 154       13XX         0.00010  -0.00226  -0.00235   0.00229   0.00219
 155       13YY         0.00010  -0.00235  -0.00226   0.00229   0.00219
 156       13ZZ         0.00015  -0.00220  -0.00220   0.00241   0.00217
 157       13XY         0.00005   0.00008   0.00008  -0.00021  -0.00010
 158       13XZ        -0.00008  -0.00022  -0.00005   0.00008   0.00012
 159       13YZ        -0.00008  -0.00005  -0.00022   0.00008   0.00012
 160       14XXX       -0.00002  -0.00050  -0.00043   0.00047   0.00042
 161       14YYY       -0.00002  -0.00043  -0.00050   0.00047   0.00042
 162       14ZZZ        0.00002   0.00061   0.00061  -0.00060  -0.00057
 163       14XYY       -0.00001  -0.00021  -0.00017   0.00019   0.00019
 164       14XXY       -0.00001  -0.00017  -0.00021   0.00019   0.00019
 165       14XXZ        0.00001   0.00024   0.00029  -0.00026  -0.00026
 166       14XZZ        0.00000  -0.00018  -0.00020   0.00023   0.00017
 167       14YZZ        0.00000  -0.00020  -0.00018   0.00023   0.00017
 168       14YYZ        0.00001   0.00029   0.00024  -0.00026  -0.00026
 169       14XYZ       -0.00001   0.00000   0.00000   0.00001   0.00000
 170 4   F  1S          0.00000  -0.48811   0.48811  -0.48811   0.48811
 171        2S          0.00003   0.00842  -0.00842   0.00845  -0.00839
 172        3S          0.00001  -0.02515   0.02515  -0.02520   0.02511
 173        4S          0.00034   0.01041  -0.01041   0.01084  -0.01087
 174        5PX         0.00000   0.00043  -0.00042   0.00043  -0.00043
 175        5PY         0.00000  -0.00042   0.00043  -0.00043   0.00043
 176        5PZ        -0.00001  -0.00058   0.00058  -0.00058   0.00059
 177        6PX         0.00000  -0.00090   0.00085  -0.00091   0.00095
 178        6PY         0.00000   0.00085  -0.00090   0.00091  -0.00095
 179        6PZ        -0.00001   0.00121  -0.00121   0.00120  -0.00133
 180        7PX        -0.00024  -0.00078   0.00044  -0.00086   0.00071
 181        7PY         0.00024   0.00044  -0.00078   0.00086  -0.00071
 182        7PZ         0.00033   0.00087  -0.00087   0.00065  -0.00090
 183        8XX         0.00000  -0.00146   0.00146  -0.00148   0.00145
 184        8YY         0.00000  -0.00146   0.00146  -0.00148   0.00145
 185        8ZZ        -0.00001  -0.00145   0.00145  -0.00147   0.00145
 186        8XY         0.00000   0.00000   0.00000   0.00000   0.00000
 187        8XZ         0.00000  -0.00001   0.00001  -0.00001   0.00000
 188        8YZ         0.00000   0.00001  -0.00001   0.00001   0.00000
 189        9XX         0.00000  -0.00470   0.00471  -0.00476   0.00465
 190        9YY         0.00000  -0.00471   0.00470  -0.00476   0.00465
 191        9ZZ         0.00000  -0.00472   0.00472  -0.00480   0.00464
 192        9XY         0.00000   0.00004  -0.00004   0.00002  -0.00001
 193        9XZ         0.00000   0.00003  -0.00004   0.00005   0.00000
 194        9YZ         0.00000  -0.00004   0.00003  -0.00005   0.00000
 195       10XXX        0.00000   0.00036  -0.00033   0.00036  -0.00036
 196       10YYY        0.00000  -0.00033   0.00036  -0.00036   0.00036
 197       10ZZZ       -0.00001  -0.00048   0.00048  -0.00047   0.00052
 198       10XYY        0.00000   0.00017  -0.00016   0.00017  -0.00016
 199       10XXY        0.00000  -0.00016   0.00017  -0.00017   0.00016
 200       10XXZ        0.00000  -0.00022   0.00021  -0.00021   0.00023
 201       10XZZ        0.00000   0.00018  -0.00015   0.00016  -0.00017
 202       10YZZ        0.00000  -0.00015   0.00018  -0.00016   0.00017
 203       10YYZ        0.00000  -0.00021   0.00022  -0.00021   0.00023
 204       10XYZ        0.00000   0.00001  -0.00001   0.00001  -0.00001
 205       11S          0.00017   0.00539  -0.00539   0.00630  -0.00756
 206       12PX        -0.00001  -0.00050   0.00015  -0.00054   0.00073
 207       12PY         0.00001   0.00015  -0.00050   0.00054  -0.00073
 208       12PZ         0.00003   0.00061  -0.00061   0.00014  -0.00091
 209       13XX         0.00010  -0.00226   0.00235  -0.00229   0.00219
 210       13YY         0.00010  -0.00235   0.00226  -0.00229   0.00219
 211       13ZZ         0.00015  -0.00220   0.00220  -0.00241   0.00217
 212       13XY        -0.00005  -0.00008   0.00008  -0.00021   0.00010
 213       13XZ        -0.00008  -0.00022   0.00005  -0.00008   0.00012
 214       13YZ         0.00008   0.00005  -0.00022   0.00008  -0.00012
 215       14XXX        0.00002   0.00050  -0.00043   0.00047  -0.00042
 216       14YYY       -0.00002  -0.00043   0.00050  -0.00047   0.00042
 217       14ZZZ       -0.00002  -0.00061   0.00061  -0.00060   0.00057
 218       14XYY        0.00001   0.00021  -0.00017   0.00019  -0.00019
 219       14XXY       -0.00001  -0.00017   0.00021  -0.00019   0.00019
 220       14XXZ       -0.00001  -0.00024   0.00029  -0.00026   0.00026
 221       14XZZ        0.00000   0.00018  -0.00020   0.00023  -0.00017
 222       14YZZ        0.00000  -0.00020   0.00018  -0.00023   0.00017
 223       14YYZ       -0.00001  -0.00029   0.00024  -0.00026   0.00026
 224       14XYZ       -0.00001   0.00000   0.00000  -0.00001   0.00000
 225 5   F  1S          0.00000   0.48811  -0.48811  -0.48811   0.48811
 226        2S          0.00003  -0.00842   0.00842   0.00845  -0.00839
 227        3S          0.00001   0.02515  -0.02515  -0.02520   0.02511
 228        4S          0.00034  -0.01041   0.01041   0.01084  -0.01087
 229        5PX         0.00000   0.00043  -0.00042  -0.00043   0.00043
 230        5PY         0.00000  -0.00042   0.00043   0.00043  -0.00043
 231        5PZ        -0.00001   0.00058  -0.00058  -0.00058   0.00059
 232        6PX         0.00000  -0.00090   0.00085   0.00091  -0.00095
 233        6PY         0.00000   0.00085  -0.00090  -0.00091   0.00095
 234        6PZ        -0.00001  -0.00121   0.00121   0.00120  -0.00133
 235        7PX         0.00024  -0.00078   0.00044   0.00086  -0.00071
 236        7PY        -0.00024   0.00044  -0.00078  -0.00086   0.00071
 237        7PZ         0.00033  -0.00087   0.00087   0.00065  -0.00090
 238        8XX         0.00000   0.00146  -0.00146  -0.00148   0.00145
 239        8YY         0.00000   0.00146  -0.00146  -0.00148   0.00145
 240        8ZZ        -0.00001   0.00145  -0.00145  -0.00147   0.00145
 241        8XY         0.00000   0.00000   0.00000   0.00000   0.00000
 242        8XZ         0.00000  -0.00001   0.00001   0.00001   0.00000
 243        8YZ         0.00000   0.00001  -0.00001  -0.00001   0.00000
 244        9XX         0.00000   0.00470  -0.00471  -0.00476   0.00465
 245        9YY         0.00000   0.00471  -0.00470  -0.00476   0.00465
 246        9ZZ         0.00000   0.00472  -0.00472  -0.00480   0.00464
 247        9XY         0.00000  -0.00004   0.00004   0.00002  -0.00001
 248        9XZ         0.00000   0.00003  -0.00004  -0.00005   0.00000
 249        9YZ         0.00000  -0.00004   0.00003   0.00005   0.00000
 250       10XXX        0.00000   0.00036  -0.00033  -0.00036   0.00036
 251       10YYY        0.00000  -0.00033   0.00036   0.00036  -0.00036
 252       10ZZZ       -0.00001   0.00048  -0.00048  -0.00047   0.00052
 253       10XYY        0.00000   0.00017  -0.00016  -0.00017   0.00016
 254       10XXY        0.00000  -0.00016   0.00017   0.00017  -0.00016
 255       10XXZ        0.00000   0.00022  -0.00021  -0.00021   0.00023
 256       10XZZ        0.00000   0.00018  -0.00015  -0.00016   0.00017
 257       10YZZ        0.00000  -0.00015   0.00018   0.00016  -0.00017
 258       10YYZ        0.00000   0.00021  -0.00022  -0.00021   0.00023
 259       10XYZ        0.00000  -0.00001   0.00001   0.00001  -0.00001
 260       11S          0.00017  -0.00539   0.00539   0.00630  -0.00756
 261       12PX         0.00001  -0.00050   0.00015   0.00054  -0.00073
 262       12PY        -0.00001   0.00015  -0.00050  -0.00054   0.00073
 263       12PZ         0.00003  -0.00061   0.00061   0.00014  -0.00091
 264       13XX         0.00010   0.00226  -0.00235  -0.00229   0.00219
 265       13YY         0.00010   0.00235  -0.00226  -0.00229   0.00219
 266       13ZZ         0.00015   0.00220  -0.00220  -0.00241   0.00217
 267       13XY        -0.00005   0.00008  -0.00008  -0.00021   0.00010
 268       13XZ         0.00008  -0.00022   0.00005   0.00008  -0.00012
 269       13YZ        -0.00008   0.00005  -0.00022  -0.00008   0.00012
 270       14XXX       -0.00002   0.00050  -0.00043  -0.00047   0.00042
 271       14YYY        0.00002  -0.00043   0.00050   0.00047  -0.00042
 272       14ZZZ       -0.00002   0.00061  -0.00061  -0.00060   0.00057
 273       14XYY       -0.00001   0.00021  -0.00017  -0.00019   0.00019
 274       14XXY        0.00001  -0.00017   0.00021   0.00019  -0.00019
 275       14XXZ       -0.00001   0.00024  -0.00029  -0.00026   0.00026
 276       14XZZ        0.00000   0.00018  -0.00020  -0.00023   0.00017
 277       14YZZ        0.00000  -0.00020   0.00018   0.00023  -0.00017
 278       14YYZ       -0.00001   0.00029  -0.00024  -0.00026   0.00026
 279       14XYZ       -0.00001   0.00000   0.00000  -0.00001   0.00000
                           6         7         8         9        10
                        (A)--O    (B3)--O   (B2)--O   (B1)--O   (A)--O
     EIGENVALUES --    -6.26969  -4.37920  -4.37920  -4.37846  -1.67511
   1 1   Si 1S         -0.27224   0.00000   0.00000   0.00000   0.02524
   2        2S          1.00094   0.00000   0.00000   0.00000  -0.09733
   3        3S         -0.01665   0.00000   0.00000   0.00000   0.17728
   4        4S          0.05846   0.00000   0.00000   0.00000   0.01907
   5        5S         -0.03416   0.00000   0.00000   0.00000   0.03591
   6        6PX         0.00000   0.92079   0.00000   0.00000   0.00000
   7        6PY         0.00000   0.00000   0.92079   0.00000   0.00000
   8        6PZ         0.00000   0.00000   0.00000   0.92109   0.00000
   9        7PX         0.00000  -0.00121   0.00000   0.00000   0.00000
  10        7PY         0.00000   0.00000  -0.00121   0.00000   0.00000
  11        7PZ         0.00000   0.00000   0.00000  -0.00003   0.00000
  12        8PX         0.00000   0.13260   0.00000   0.00000   0.00000
  13        8PY         0.00000   0.00000   0.13260   0.00000   0.00000
  14        8PZ         0.00000   0.00000   0.00000   0.13115   0.00000
  15        9PX         0.00000   0.00310   0.00000   0.00000   0.00000
  16        9PY         0.00000   0.00000   0.00310   0.00000   0.00000
  17        9PZ         0.00000   0.00000   0.00000   0.00460   0.00000
  18       10XX         0.00897   0.00000   0.00000   0.00000  -0.00915
  19       10YY         0.00897   0.00000   0.00000   0.00000  -0.00915
  20       10ZZ         0.00736   0.00000   0.00000   0.00000   0.01353
  21       10XY         0.00000   0.00000   0.00000  -0.00021   0.00000
  22       10XZ         0.00000   0.00000  -0.00091   0.00000   0.00000
  23       10YZ         0.00000  -0.00091   0.00000   0.00000   0.00000
  24       11XX         0.00202   0.00000   0.00000   0.00000  -0.01427
  25       11YY         0.00202   0.00000   0.00000   0.00000  -0.01427
  26       11ZZ         0.00121   0.00000   0.00000   0.00000  -0.00184
  27       11XY         0.00000   0.00000   0.00000  -0.00012   0.00000
  28       11XZ         0.00000   0.00000  -0.00016   0.00000   0.00000
  29       11YZ         0.00000  -0.00016   0.00000   0.00000   0.00000
  30       12XXX        0.00000   0.00098   0.00000   0.00000   0.00000
  31       12YYY        0.00000   0.00000   0.00098   0.00000   0.00000
  32       12ZZZ        0.00000   0.00000   0.00000  -0.00117   0.00000
  33       12XYY        0.00000   0.00036   0.00000   0.00000   0.00000
  34       12XXY        0.00000   0.00000   0.00036   0.00000   0.00000
  35       12XXZ        0.00000   0.00000   0.00000  -0.00005   0.00000
  36       12XZZ        0.00000   0.00025   0.00000   0.00000   0.00000
  37       12YZZ        0.00000   0.00000   0.00025   0.00000   0.00000
  38       12YYZ        0.00000   0.00000   0.00000  -0.00005   0.00000
  39       12XYZ       -0.00051   0.00000   0.00000   0.00000   0.01669
  40       13S         -0.00367   0.00000   0.00000   0.00000  -0.00420
  41       14PX         0.00000  -0.00007   0.00000   0.00000   0.00000
  42       14PY         0.00000   0.00000  -0.00007   0.00000   0.00000
  43       14PZ         0.00000   0.00000   0.00000  -0.00009   0.00000
  44       15XX         0.00222   0.00000   0.00000   0.00000  -0.00144
  45       15YY         0.00222   0.00000   0.00000   0.00000  -0.00144
  46       15ZZ         0.00206   0.00000   0.00000   0.00000   0.00525
  47       15XY         0.00000   0.00000   0.00000   0.00018   0.00000
  48       15XZ         0.00000   0.00000  -0.00009   0.00000   0.00000
  49       15YZ         0.00000  -0.00009   0.00000   0.00000   0.00000
  50       16XXX        0.00000  -0.00156   0.00000   0.00000   0.00000
  51       16YYY        0.00000   0.00000  -0.00156   0.00000   0.00000
  52       16ZZZ        0.00000   0.00000   0.00000  -0.00260   0.00000
  53       16XYY        0.00000  -0.00092   0.00000   0.00000   0.00000
  54       16XXY        0.00000   0.00000  -0.00092   0.00000   0.00000
  55       16XXZ        0.00000   0.00000   0.00000  -0.00100   0.00000
  56       16XZZ        0.00000  -0.00095   0.00000   0.00000   0.00000
  57       16YZZ        0.00000   0.00000  -0.00095   0.00000   0.00000
  58       16YYZ        0.00000   0.00000   0.00000  -0.00100   0.00000
  59       16XYZ       -0.00044   0.00000   0.00000   0.00000   0.00121
  60 2   F  1S         -0.00039  -0.00089  -0.00089  -0.00106  -0.11006
  61        2S          0.00075   0.00179   0.00179   0.00214   0.24795
  62        3S          0.00014   0.00072   0.00072   0.00088   0.07550
  63        4S          0.00155   0.00031   0.00031   0.00018   0.15621
  64        5PX        -0.00026  -0.00033  -0.00067  -0.00080  -0.01099
  65        5PY        -0.00026  -0.00067  -0.00033  -0.00080  -0.01099
  66        5PZ        -0.00031  -0.00080  -0.00080  -0.00062  -0.01217
  67        6PX        -0.00043  -0.00074  -0.00125  -0.00142  -0.01662
  68        6PY        -0.00043  -0.00125  -0.00074  -0.00142  -0.01662
  69        6PZ        -0.00055  -0.00148  -0.00148  -0.00121  -0.01860
  70        7PX        -0.00075  -0.00031  -0.00030  -0.00076   0.00530
  71        7PY        -0.00075  -0.00030  -0.00031  -0.00076   0.00530
  72        7PZ        -0.00046  -0.00043  -0.00043  -0.00036   0.00052
  73        8XX        -0.00004   0.00000   0.00006   0.00008   0.00126
  74        8YY        -0.00004   0.00006   0.00000   0.00008   0.00126
  75        8ZZ        -0.00003   0.00009   0.00009   0.00004   0.00126
  76        8XY         0.00001   0.00005   0.00005   0.00010   0.00030
  77        8XZ         0.00002   0.00006   0.00011   0.00009   0.00025
  78        8YZ         0.00002   0.00011   0.00006   0.00009   0.00025
  79        9XX         0.00002   0.00015   0.00045   0.00054   0.00217
  80        9YY         0.00002   0.00045   0.00015   0.00054   0.00217
  81        9ZZ         0.00010   0.00061   0.00061   0.00034   0.00376
  82        9XY         0.00024   0.00023   0.00023   0.00045   0.00395
  83        9XZ         0.00028   0.00027   0.00048   0.00038   0.00492
  84        9YZ         0.00028   0.00048   0.00027   0.00038   0.00492
  85       10XXX        0.00004   0.00013   0.00009   0.00010  -0.00003
  86       10YYY        0.00004   0.00009   0.00013   0.00010  -0.00003
  87       10ZZZ        0.00001   0.00009   0.00009   0.00016   0.00001
  88       10XYY       -0.00002   0.00001   0.00005   0.00001  -0.00029
  89       10XXY       -0.00002   0.00005   0.00001   0.00001  -0.00029
  90       10XXZ       -0.00003   0.00007   0.00000   0.00001  -0.00013
  91       10XZZ       -0.00007   0.00000  -0.00002   0.00003  -0.00016
  92       10YZZ       -0.00007  -0.00002   0.00000   0.00003  -0.00016
  93       10YYZ       -0.00003   0.00000   0.00007   0.00001  -0.00013
  94       10XYZ       -0.00010  -0.00005  -0.00005  -0.00006  -0.00018
  95       11S          0.00356  -0.00018  -0.00018  -0.00056   0.00070
  96       12PX        -0.00049  -0.00007   0.00006   0.00000   0.00176
  97       12PY        -0.00049   0.00006  -0.00007   0.00000   0.00176
  98       12PZ        -0.00055   0.00006   0.00006  -0.00002  -0.00188
  99       13XX         0.00011   0.00034   0.00033   0.00054  -0.00746
 100       13YY         0.00011   0.00033   0.00034   0.00054  -0.00746
 101       13ZZ        -0.00003   0.00035   0.00035   0.00041  -0.00568
 102       13XY         0.00024   0.00001   0.00001   0.00023  -0.00158
 103       13XZ         0.00013   0.00005   0.00003   0.00008   0.00034
 104       13YZ         0.00013   0.00003   0.00005   0.00008   0.00034
 105       14XXX       -0.00005   0.00006  -0.00002   0.00004  -0.00255
 106       14YYY       -0.00005  -0.00002   0.00006   0.00004  -0.00255
 107       14ZZZ       -0.00010  -0.00005  -0.00005   0.00004  -0.00315
 108       14XYY       -0.00011  -0.00002  -0.00001  -0.00008  -0.00152
 109       14XXY       -0.00011  -0.00001  -0.00002  -0.00008  -0.00152
 110       14XXZ       -0.00011  -0.00002  -0.00007  -0.00004  -0.00230
 111       14XZZ       -0.00006  -0.00007  -0.00011  -0.00004  -0.00321
 112       14YZZ       -0.00006  -0.00011  -0.00007  -0.00004  -0.00321
 113       14YYZ       -0.00011  -0.00007  -0.00002  -0.00004  -0.00230
 114       14XYZ       -0.00010  -0.00009  -0.00009  -0.00013  -0.00251
 115 3   F  1S         -0.00039   0.00089   0.00089  -0.00106  -0.11006
 116        2S          0.00075  -0.00179  -0.00179   0.00214   0.24795
 117        3S          0.00014  -0.00072  -0.00072   0.00088   0.07550
 118        4S          0.00155  -0.00031  -0.00031   0.00018   0.15621
 119        5PX         0.00026  -0.00033  -0.00067   0.00080   0.01099
 120        5PY         0.00026  -0.00067  -0.00033   0.00080   0.01099
 121        5PZ        -0.00031   0.00080   0.00080  -0.00062  -0.01217
 122        6PX         0.00043  -0.00074  -0.00125   0.00142   0.01662
 123        6PY         0.00043  -0.00125  -0.00074   0.00142   0.01662
 124        6PZ        -0.00055   0.00148   0.00148  -0.00121  -0.01860
 125        7PX         0.00075  -0.00031  -0.00030   0.00076  -0.00530
 126        7PY         0.00075  -0.00030  -0.00031   0.00076  -0.00530
 127        7PZ        -0.00046   0.00043   0.00043  -0.00036   0.00052
 128        8XX        -0.00004   0.00000  -0.00006   0.00008   0.00126
 129        8YY        -0.00004  -0.00006   0.00000   0.00008   0.00126
 130        8ZZ        -0.00003  -0.00009  -0.00009   0.00004   0.00126
 131        8XY         0.00001  -0.00005  -0.00005   0.00010   0.00030
 132        8XZ        -0.00002   0.00006   0.00011  -0.00009  -0.00025
 133        8YZ        -0.00002   0.00011   0.00006  -0.00009  -0.00025
 134        9XX         0.00002  -0.00015  -0.00045   0.00054   0.00217
 135        9YY         0.00002  -0.00045  -0.00015   0.00054   0.00217
 136        9ZZ         0.00010  -0.00061  -0.00061   0.00034   0.00376
 137        9XY         0.00024  -0.00023  -0.00023   0.00045   0.00395
 138        9XZ        -0.00028   0.00027   0.00048  -0.00038  -0.00492
 139        9YZ        -0.00028   0.00048   0.00027  -0.00038  -0.00492
 140       10XXX       -0.00004   0.00013   0.00009  -0.00010   0.00003
 141       10YYY       -0.00004   0.00009   0.00013  -0.00010   0.00003
 142       10ZZZ        0.00001  -0.00009  -0.00009   0.00016   0.00001
 143       10XYY        0.00002   0.00001   0.00005  -0.00001   0.00029
 144       10XXY        0.00002   0.00005   0.00001  -0.00001   0.00029
 145       10XXZ       -0.00003  -0.00007   0.00000   0.00001  -0.00013
 146       10XZZ        0.00007   0.00000  -0.00002  -0.00003   0.00016
 147       10YZZ        0.00007  -0.00002   0.00000  -0.00003   0.00016
 148       10YYZ       -0.00003   0.00000  -0.00007   0.00001  -0.00013
 149       10XYZ       -0.00010   0.00005   0.00005  -0.00006  -0.00018
 150       11S          0.00356   0.00018   0.00018  -0.00056   0.00070
 151       12PX         0.00049  -0.00007   0.00006   0.00000  -0.00176
 152       12PY         0.00049   0.00006  -0.00007   0.00000  -0.00176
 153       12PZ        -0.00055  -0.00006  -0.00006  -0.00002  -0.00188
 154       13XX         0.00011  -0.00034  -0.00033   0.00054  -0.00746
 155       13YY         0.00011  -0.00033  -0.00034   0.00054  -0.00746
 156       13ZZ        -0.00003  -0.00035  -0.00035   0.00041  -0.00568
 157       13XY         0.00024  -0.00001  -0.00001   0.00023  -0.00158
 158       13XZ        -0.00013   0.00005   0.00003  -0.00008  -0.00034
 159       13YZ        -0.00013   0.00003   0.00005  -0.00008  -0.00034
 160       14XXX        0.00005   0.00006  -0.00002  -0.00004   0.00255
 161       14YYY        0.00005  -0.00002   0.00006  -0.00004   0.00255
 162       14ZZZ       -0.00010   0.00005   0.00005   0.00004  -0.00315
 163       14XYY        0.00011  -0.00002  -0.00001   0.00008   0.00152
 164       14XXY        0.00011  -0.00001  -0.00002   0.00008   0.00152
 165       14XXZ       -0.00011   0.00002   0.00007  -0.00004  -0.00230
 166       14XZZ        0.00006  -0.00007  -0.00011   0.00004   0.00321
 167       14YZZ        0.00006  -0.00011  -0.00007   0.00004   0.00321
 168       14YYZ       -0.00011   0.00007   0.00002  -0.00004  -0.00230
 169       14XYZ       -0.00010   0.00009   0.00009  -0.00013  -0.00251
 170 4   F  1S         -0.00039  -0.00089   0.00089   0.00106  -0.11006
 171        2S          0.00075   0.00179  -0.00179  -0.00214   0.24795
 172        3S          0.00014   0.00072  -0.00072  -0.00088   0.07550
 173        4S          0.00155   0.00031  -0.00031  -0.00018   0.15621
 174        5PX        -0.00026  -0.00033   0.00067   0.00080  -0.01099
 175        5PY         0.00026   0.00067  -0.00033  -0.00080   0.01099
 176        5PZ         0.00031   0.00080  -0.00080  -0.00062   0.01217
 177        6PX        -0.00043  -0.00074   0.00125   0.00142  -0.01662
 178        6PY         0.00043   0.00125  -0.00074  -0.00142   0.01662
 179        6PZ         0.00055   0.00148  -0.00148  -0.00121   0.01860
 180        7PX        -0.00075  -0.00031   0.00030   0.00076   0.00530
 181        7PY         0.00075   0.00030  -0.00031  -0.00076  -0.00530
 182        7PZ         0.00046   0.00043  -0.00043  -0.00036  -0.00052
 183        8XX        -0.00004   0.00000  -0.00006  -0.00008   0.00126
 184        8YY        -0.00004   0.00006   0.00000  -0.00008   0.00126
 185        8ZZ        -0.00003   0.00009  -0.00009  -0.00004   0.00126
 186        8XY        -0.00001  -0.00005   0.00005   0.00010  -0.00030
 187        8XZ        -0.00002  -0.00006   0.00011   0.00009  -0.00025
 188        8YZ         0.00002   0.00011  -0.00006  -0.00009   0.00025
 189        9XX         0.00002   0.00015  -0.00045  -0.00054   0.00217
 190        9YY         0.00002   0.00045  -0.00015  -0.00054   0.00217
 191        9ZZ         0.00010   0.00061  -0.00061  -0.00034   0.00376
 192        9XY        -0.00024  -0.00023   0.00023   0.00045  -0.00395
 193        9XZ        -0.00028  -0.00027   0.00048   0.00038  -0.00492
 194        9YZ         0.00028   0.00048  -0.00027  -0.00038   0.00492
 195       10XXX        0.00004   0.00013  -0.00009  -0.00010  -0.00003
 196       10YYY       -0.00004  -0.00009   0.00013   0.00010   0.00003
 197       10ZZZ       -0.00001  -0.00009   0.00009   0.00016  -0.00001
 198       10XYY       -0.00002   0.00001  -0.00005  -0.00001  -0.00029
 199       10XXY        0.00002  -0.00005   0.00001   0.00001   0.00029
 200       10XXZ        0.00003  -0.00007   0.00000   0.00001   0.00013
 201       10XZZ       -0.00007   0.00000   0.00002  -0.00003  -0.00016
 202       10YZZ        0.00007   0.00002   0.00000   0.00003   0.00016
 203       10YYZ        0.00003   0.00000   0.00007   0.00001   0.00013
 204       10XYZ       -0.00010  -0.00005   0.00005   0.00006  -0.00018
 205       11S          0.00356  -0.00018   0.00018   0.00056   0.00070
 206       12PX        -0.00049  -0.00007  -0.00006   0.00000   0.00176
 207       12PY         0.00049  -0.00006  -0.00007   0.00000  -0.00176
 208       12PZ         0.00055  -0.00006   0.00006  -0.00002   0.00188
 209       13XX         0.00011   0.00034  -0.00033  -0.00054  -0.00746
 210       13YY         0.00011   0.00033  -0.00034  -0.00054  -0.00746
 211       13ZZ        -0.00003   0.00035  -0.00035  -0.00041  -0.00568
 212       13XY        -0.00024  -0.00001   0.00001   0.00023   0.00158
 213       13XZ        -0.00013  -0.00005   0.00003   0.00008  -0.00034
 214       13YZ         0.00013   0.00003  -0.00005  -0.00008   0.00034
 215       14XXX       -0.00005   0.00006   0.00002  -0.00004  -0.00255
 216       14YYY        0.00005   0.00002   0.00006   0.00004   0.00255
 217       14ZZZ        0.00010   0.00005  -0.00005   0.00004   0.00315
 218       14XYY       -0.00011  -0.00002   0.00001   0.00008  -0.00152
 219       14XXY        0.00011   0.00001  -0.00002  -0.00008   0.00152
 220       14XXZ        0.00011   0.00002  -0.00007  -0.00004   0.00230
 221       14XZZ       -0.00006  -0.00007   0.00011   0.00004  -0.00321
 222       14YZZ        0.00006   0.00011  -0.00007  -0.00004   0.00321
 223       14YYZ        0.00011   0.00007  -0.00002  -0.00004   0.00230
 224       14XYZ       -0.00010  -0.00009   0.00009   0.00013  -0.00251
 225 5   F  1S         -0.00039   0.00089  -0.00089   0.00106  -0.11006
 226        2S          0.00075  -0.00179   0.00179  -0.00214   0.24795
 227        3S          0.00014  -0.00072   0.00072  -0.00088   0.07550
 228        4S          0.00155  -0.00031   0.00031  -0.00018   0.15621
 229        5PX         0.00026  -0.00033   0.00067  -0.00080   0.01099
 230        5PY        -0.00026   0.00067  -0.00033   0.00080  -0.01099
 231        5PZ         0.00031  -0.00080   0.00080  -0.00062   0.01217
 232        6PX         0.00043  -0.00074   0.00125  -0.00142   0.01662
 233        6PY        -0.00043   0.00125  -0.00074   0.00142  -0.01662
 234        6PZ         0.00055  -0.00148   0.00148  -0.00121   0.01860
 235        7PX         0.00075  -0.00031   0.00030  -0.00076  -0.00530
 236        7PY        -0.00075   0.00030  -0.00031   0.00076   0.00530
 237        7PZ         0.00046  -0.00043   0.00043  -0.00036  -0.00052
 238        8XX        -0.00004   0.00000   0.00006  -0.00008   0.00126
 239        8YY        -0.00004  -0.00006   0.00000  -0.00008   0.00126
 240        8ZZ        -0.00003  -0.00009   0.00009  -0.00004   0.00126
 241        8XY        -0.00001   0.00005  -0.00005   0.00010  -0.00030
 242        8XZ         0.00002  -0.00006   0.00011  -0.00009   0.00025
 243        8YZ        -0.00002   0.00011  -0.00006   0.00009  -0.00025
 244        9XX         0.00002  -0.00015   0.00045  -0.00054   0.00217
 245        9YY         0.00002  -0.00045   0.00015  -0.00054   0.00217
 246        9ZZ         0.00010  -0.00061   0.00061  -0.00034   0.00376
 247        9XY        -0.00024   0.00023  -0.00023   0.00045  -0.00395
 248        9XZ         0.00028  -0.00027   0.00048  -0.00038   0.00492
 249        9YZ        -0.00028   0.00048  -0.00027   0.00038  -0.00492
 250       10XXX       -0.00004   0.00013  -0.00009   0.00010   0.00003
 251       10YYY        0.00004  -0.00009   0.00013  -0.00010  -0.00003
 252       10ZZZ       -0.00001   0.00009  -0.00009   0.00016  -0.00001
 253       10XYY        0.00002   0.00001  -0.00005   0.00001   0.00029
 254       10XXY       -0.00002  -0.00005   0.00001  -0.00001  -0.00029
 255       10XXZ        0.00003   0.00007   0.00000   0.00001   0.00013
 256       10XZZ        0.00007   0.00000   0.00002   0.00003   0.00016
 257       10YZZ       -0.00007   0.00002   0.00000  -0.00003  -0.00016
 258       10YYZ        0.00003   0.00000  -0.00007   0.00001   0.00013
 259       10XYZ       -0.00010   0.00005  -0.00005   0.00006  -0.00018
 260       11S          0.00356   0.00018  -0.00018   0.00056   0.00070
 261       12PX         0.00049  -0.00007  -0.00006   0.00000  -0.00176
 262       12PY        -0.00049  -0.00006  -0.00007   0.00000   0.00176
 263       12PZ         0.00055   0.00006  -0.00006  -0.00002   0.00188
 264       13XX         0.00011  -0.00034   0.00033  -0.00054  -0.00746
 265       13YY         0.00011  -0.00033   0.00034  -0.00054  -0.00746
 266       13ZZ        -0.00003  -0.00035   0.00035  -0.00041  -0.00568
 267       13XY        -0.00024   0.00001  -0.00001   0.00023   0.00158
 268       13XZ         0.00013  -0.00005   0.00003  -0.00008   0.00034
 269       13YZ        -0.00013   0.00003  -0.00005   0.00008  -0.00034
 270       14XXX        0.00005   0.00006   0.00002   0.00004   0.00255
 271       14YYY       -0.00005   0.00002   0.00006  -0.00004  -0.00255
 272       14ZZZ        0.00010  -0.00005   0.00005   0.00004   0.00315
 273       14XYY        0.00011  -0.00002   0.00001  -0.00008   0.00152
 274       14XXY       -0.00011   0.00001  -0.00002   0.00008  -0.00152
 275       14XXZ        0.00011  -0.00002   0.00007  -0.00004   0.00230
 276       14XZZ        0.00006  -0.00007   0.00011  -0.00004   0.00321
 277       14YZZ       -0.00006   0.00011  -0.00007   0.00004  -0.00321
 278       14YYZ        0.00011  -0.00007   0.00002  -0.00004   0.00230
 279       14XYZ       -0.00010   0.00009  -0.00009   0.00013  -0.00251
                          11        12        13        14        15
                        (B1)--O   (B2)--O   (B3)--O   (A)--O    (B1)--O
     EIGENVALUES --    -1.64345  -1.63210  -1.63210  -0.86011  -0.79252
   1 1   Si 1S          0.00000   0.00000   0.00000   0.04475   0.00000
   2        2S          0.00000   0.00000   0.00000  -0.17699   0.00000
   3        3S          0.00000   0.00000   0.00000   0.37128   0.00000
   4        4S          0.00000   0.00000   0.00000   0.04902   0.00000
   5        5S          0.00000   0.00000   0.00000   0.10128   0.00000
   6        6PX         0.00000   0.00000  -0.06124   0.00000   0.00000
   7        6PY         0.00000  -0.06124   0.00000   0.00000   0.00000
   8        6PZ        -0.07223   0.00000   0.00000   0.00000  -0.12076
   9        7PX         0.00000   0.00000   0.10930   0.00000   0.00000
  10        7PY         0.00000   0.10930   0.00000   0.00000   0.00000
  11        7PZ         0.13220   0.00000   0.00000   0.00000   0.29519
  12        8PX         0.00000   0.00000   0.00183   0.00000   0.00000
  13        8PY         0.00000   0.00183   0.00000   0.00000   0.00000
  14        8PZ         0.00196   0.00000   0.00000   0.00000   0.01853
  15        9PX         0.00000   0.00000  -0.02016   0.00000   0.00000
  16        9PY         0.00000  -0.02016   0.00000   0.00000   0.00000
  17        9PZ        -0.02460   0.00000   0.00000   0.00000  -0.00018
  18       10XX         0.00000   0.00000   0.00000  -0.02225   0.00000
  19       10YY         0.00000   0.00000   0.00000  -0.02225   0.00000
  20       10ZZ         0.00000   0.00000   0.00000  -0.00161   0.00000
  21       10XY         0.03766   0.00000   0.00000   0.00000   0.02506
  22       10XZ         0.00000   0.05245   0.00000   0.00000   0.00000
  23       10YZ         0.00000   0.00000   0.05245   0.00000   0.00000
  24       11XX         0.00000   0.00000   0.00000  -0.01761   0.00000
  25       11YY         0.00000   0.00000   0.00000  -0.01761   0.00000
  26       11ZZ         0.00000   0.00000   0.00000   0.00254   0.00000
  27       11XY         0.04017   0.00000   0.00000   0.00000   0.03428
  28       11XZ         0.00000   0.04884   0.00000   0.00000   0.00000
  29       11YZ         0.00000   0.00000   0.04884   0.00000   0.00000
  30       12XXX        0.00000   0.00000  -0.04010   0.00000   0.00000
  31       12YYY        0.00000  -0.04010   0.00000   0.00000   0.00000
  32       12ZZZ       -0.04903   0.00000   0.00000   0.00000  -0.06051
  33       12XYY        0.00000   0.00000   0.00508   0.00000   0.00000
  34       12XXY        0.00000   0.00508   0.00000   0.00000   0.00000
  35       12XXZ        0.00141   0.00000   0.00000   0.00000  -0.01943
  36       12XZZ        0.00000   0.00000   0.01100   0.00000   0.00000
  37       12YZZ        0.00000   0.01100   0.00000   0.00000   0.00000
  38       12YYZ        0.00141   0.00000   0.00000   0.00000  -0.01943
  39       12XYZ        0.00000   0.00000   0.00000   0.02414   0.00000
  40       13S          0.00000   0.00000   0.00000   0.01020   0.00000
  41       14PX         0.00000   0.00000  -0.00146   0.00000   0.00000
  42       14PY         0.00000  -0.00146   0.00000   0.00000   0.00000
  43       14PZ        -0.00229   0.00000   0.00000   0.00000  -0.00150
  44       15XX         0.00000   0.00000   0.00000  -0.00550   0.00000
  45       15YY         0.00000   0.00000   0.00000  -0.00550   0.00000
  46       15ZZ         0.00000   0.00000   0.00000   0.00473   0.00000
  47       15XY         0.00253   0.00000   0.00000   0.00000   0.00826
  48       15XZ         0.00000   0.00241   0.00000   0.00000   0.00000
  49       15YZ         0.00000   0.00000   0.00241   0.00000   0.00000
  50       16XXX        0.00000   0.00000   0.01159   0.00000   0.00000
  51       16YYY        0.00000   0.01159   0.00000   0.00000   0.00000
  52       16ZZZ        0.00639   0.00000   0.00000   0.00000   0.00704
  53       16XYY        0.00000   0.00000   0.01523   0.00000   0.00000
  54       16XXY        0.00000   0.01523   0.00000   0.00000   0.00000
  55       16XXZ        0.01453   0.00000   0.00000   0.00000   0.01433
  56       16XZZ        0.00000   0.00000   0.01625   0.00000   0.00000
  57       16YZZ        0.00000   0.01625   0.00000   0.00000   0.00000
  58       16YYZ        0.01453   0.00000   0.00000   0.00000   0.01433
  59       16XYZ        0.00000   0.00000   0.00000  -0.00392   0.00000
  60 2   F  1S         -0.11359  -0.11460  -0.11460   0.03421   0.02073
  61        2S          0.26090   0.26397   0.26397  -0.08614  -0.05034
  62        3S          0.07661   0.07702   0.07702  -0.02234  -0.01442
  63        4S          0.17049   0.16535   0.16535  -0.12929  -0.08284
  64        5PX        -0.00959  -0.00810  -0.00645  -0.08855  -0.12346
  65        5PY        -0.00959  -0.00645  -0.00810  -0.08855  -0.12346
  66        5PZ        -0.00846  -0.01049  -0.01049  -0.09842  -0.01807
  67        6PX        -0.01316  -0.00977  -0.00838  -0.10048  -0.13872
  68        6PY        -0.01316  -0.00838  -0.00977  -0.10048  -0.13872
  69        6PZ        -0.01280  -0.01368  -0.01368  -0.11186  -0.02142
  70        7PX        -0.00740  -0.00855   0.00753  -0.04607  -0.08635
  71        7PY        -0.00740   0.00753  -0.00855  -0.04607  -0.08635
  72        7PZ         0.00914  -0.00726  -0.00726  -0.05485   0.00608
  73        8XX         0.00049   0.00038   0.00046   0.00056   0.00039
  74        8YY         0.00049   0.00046   0.00038   0.00056   0.00039
  75        8ZZ         0.00072   0.00062   0.00062   0.00090  -0.00062
  76        8XY         0.00035   0.00038   0.00038   0.00124   0.00167
  77        8XZ         0.00047   0.00046   0.00054   0.00137   0.00117
  78        8YZ         0.00047   0.00054   0.00046   0.00137   0.00117
  79        9XX        -0.00060  -0.00191  -0.00278   0.00759   0.00668
  80        9YY        -0.00060  -0.00278  -0.00191   0.00759   0.00668
  81        9ZZ        -0.00151  -0.00103  -0.00103   0.01014  -0.00068
  82        9XY         0.00323   0.00123   0.00123   0.00641   0.00794
  83        9XZ         0.00248   0.00273   0.00168   0.00805   0.00480
  84        9YZ         0.00248   0.00168   0.00273   0.00805   0.00480
  85       10XXX       -0.00026  -0.00048  -0.00051  -0.00332  -0.00517
  86       10YYY       -0.00026  -0.00051  -0.00048  -0.00332  -0.00517
  87       10ZZZ       -0.00049  -0.00040  -0.00040  -0.00369  -0.00060
  88       10XYY       -0.00010  -0.00024  -0.00015  -0.00192  -0.00280
  89       10XXY       -0.00010  -0.00015  -0.00024  -0.00192  -0.00280
  90       10XXZ       -0.00025  -0.00002  -0.00050  -0.00197  -0.00061
  91       10XZZ       -0.00050  -0.00012  -0.00051  -0.00197  -0.00267
  92       10YZZ       -0.00050  -0.00051  -0.00012  -0.00197  -0.00267
  93       10YYZ       -0.00025  -0.00050  -0.00002  -0.00197  -0.00061
  94       10XYZ       -0.00031  -0.00026  -0.00026  -0.00053  -0.00077
  95       11S          0.00150  -0.00278  -0.00278  -0.03420  -0.03566
  96       12PX        -0.00047   0.00024   0.00368  -0.00016  -0.00640
  97       12PY        -0.00047   0.00368   0.00024  -0.00016  -0.00640
  98       12PZ         0.00488   0.00116   0.00116  -0.00547   0.00711
  99       13XX        -0.00480  -0.00511  -0.01062   0.00307   0.00417
 100       13YY        -0.00480  -0.01062  -0.00511   0.00307   0.00417
 101       13ZZ        -0.01209  -0.00441  -0.00441   0.00460  -0.00677
 102       13XY         0.00400  -0.00001  -0.00001  -0.00085   0.00467
 103       13XZ        -0.00108   0.00516  -0.00185   0.00100  -0.00001
 104       13YZ        -0.00108  -0.00185   0.00516   0.00100  -0.00001
 105       14XXX       -0.00081   0.00120   0.00005  -0.00579  -0.00818
 106       14YYY       -0.00081   0.00005   0.00120  -0.00579  -0.00818
 107       14ZZZ       -0.00047   0.00018   0.00018  -0.00695   0.00155
 108       14XYY       -0.00194   0.00040  -0.00102  -0.00327  -0.00525
 109       14XXY       -0.00194  -0.00102   0.00040  -0.00327  -0.00525
 110       14XXZ       -0.00138  -0.00176   0.00118  -0.00438  -0.00251
 111       14XZZ        0.00012  -0.00198  -0.00030  -0.00520  -0.00266
 112       14YZZ        0.00012  -0.00030  -0.00198  -0.00520  -0.00266
 113       14YYZ       -0.00138   0.00118  -0.00176  -0.00438  -0.00251
 114       14XYZ       -0.00113  -0.00084  -0.00084  -0.00334  -0.00193
 115 3   F  1S         -0.11359   0.11460   0.11460   0.03421   0.02073
 116        2S          0.26090  -0.26397  -0.26397  -0.08614  -0.05034
 117        3S          0.07661  -0.07702  -0.07702  -0.02234  -0.01442
 118        4S          0.17049  -0.16535  -0.16535  -0.12929  -0.08284
 119        5PX         0.00959  -0.00810  -0.00645   0.08855   0.12346
 120        5PY         0.00959  -0.00645  -0.00810   0.08855   0.12346
 121        5PZ        -0.00846   0.01049   0.01049  -0.09842  -0.01807
 122        6PX         0.01316  -0.00977  -0.00838   0.10048   0.13872
 123        6PY         0.01316  -0.00838  -0.00977   0.10048   0.13872
 124        6PZ        -0.01280   0.01368   0.01368  -0.11186  -0.02142
 125        7PX         0.00740  -0.00855   0.00753   0.04607   0.08635
 126        7PY         0.00740   0.00753  -0.00855   0.04607   0.08635
 127        7PZ         0.00914   0.00726   0.00726  -0.05485   0.00608
 128        8XX         0.00049  -0.00038  -0.00046   0.00056   0.00039
 129        8YY         0.00049  -0.00046  -0.00038   0.00056   0.00039
 130        8ZZ         0.00072  -0.00062  -0.00062   0.00090  -0.00062
 131        8XY         0.00035  -0.00038  -0.00038   0.00124   0.00167
 132        8XZ        -0.00047   0.00046   0.00054  -0.00137  -0.00117
 133        8YZ        -0.00047   0.00054   0.00046  -0.00137  -0.00117
 134        9XX        -0.00060   0.00191   0.00278   0.00759   0.00668
 135        9YY        -0.00060   0.00278   0.00191   0.00759   0.00668
 136        9ZZ        -0.00151   0.00103   0.00103   0.01014  -0.00068
 137        9XY         0.00323  -0.00123  -0.00123   0.00641   0.00794
 138        9XZ        -0.00248   0.00273   0.00168  -0.00805  -0.00480
 139        9YZ        -0.00248   0.00168   0.00273  -0.00805  -0.00480
 140       10XXX        0.00026  -0.00048  -0.00051   0.00332   0.00517
 141       10YYY        0.00026  -0.00051  -0.00048   0.00332   0.00517
 142       10ZZZ       -0.00049   0.00040   0.00040  -0.00369  -0.00060
 143       10XYY        0.00010  -0.00024  -0.00015   0.00192   0.00280
 144       10XXY        0.00010  -0.00015  -0.00024   0.00192   0.00280
 145       10XXZ       -0.00025   0.00002   0.00050  -0.00197  -0.00061
 146       10XZZ        0.00050  -0.00012  -0.00051   0.00197   0.00267
 147       10YZZ        0.00050  -0.00051  -0.00012   0.00197   0.00267
 148       10YYZ       -0.00025   0.00050   0.00002  -0.00197  -0.00061
 149       10XYZ       -0.00031   0.00026   0.00026  -0.00053  -0.00077
 150       11S          0.00150   0.00278   0.00278  -0.03420  -0.03566
 151       12PX         0.00047   0.00024   0.00368   0.00016   0.00640
 152       12PY         0.00047   0.00368   0.00024   0.00016   0.00640
 153       12PZ         0.00488  -0.00116  -0.00116  -0.00547   0.00711
 154       13XX        -0.00480   0.00511   0.01062   0.00307   0.00417
 155       13YY        -0.00480   0.01062   0.00511   0.00307   0.00417
 156       13ZZ        -0.01209   0.00441   0.00441   0.00460  -0.00677
 157       13XY         0.00400   0.00001   0.00001  -0.00085   0.00467
 158       13XZ         0.00108   0.00516  -0.00185  -0.00100   0.00001
 159       13YZ         0.00108  -0.00185   0.00516  -0.00100   0.00001
 160       14XXX        0.00081   0.00120   0.00005   0.00579   0.00818
 161       14YYY        0.00081   0.00005   0.00120   0.00579   0.00818
 162       14ZZZ       -0.00047  -0.00018  -0.00018  -0.00695   0.00155
 163       14XYY        0.00194   0.00040  -0.00102   0.00327   0.00525
 164       14XXY        0.00194  -0.00102   0.00040   0.00327   0.00525
 165       14XXZ       -0.00138   0.00176  -0.00118  -0.00438  -0.00251
 166       14XZZ       -0.00012  -0.00198  -0.00030   0.00520   0.00266
 167       14YZZ       -0.00012  -0.00030  -0.00198   0.00520   0.00266
 168       14YYZ       -0.00138  -0.00118   0.00176  -0.00438  -0.00251
 169       14XYZ       -0.00113   0.00084   0.00084  -0.00334  -0.00193
 170 4   F  1S          0.11359   0.11460  -0.11460   0.03421  -0.02073
 171        2S         -0.26090  -0.26397   0.26397  -0.08614   0.05034
 172        3S         -0.07661  -0.07702   0.07702  -0.02234   0.01442
 173        4S         -0.17049  -0.16535   0.16535  -0.12929   0.08284
 174        5PX         0.00959   0.00810  -0.00645  -0.08855   0.12346
 175        5PY        -0.00959  -0.00645   0.00810   0.08855  -0.12346
 176        5PZ        -0.00846  -0.01049   0.01049   0.09842  -0.01807
 177        6PX         0.01316   0.00977  -0.00838  -0.10048   0.13872
 178        6PY        -0.01316  -0.00838   0.00977   0.10048  -0.13872
 179        6PZ        -0.01280  -0.01368   0.01368   0.11186  -0.02142
 180        7PX         0.00740   0.00855   0.00753  -0.04607   0.08635
 181        7PY        -0.00740   0.00753   0.00855   0.04607  -0.08635
[...]
 125        7PX         0.41933
 126        7PY         0.41933
 127        7PZ         0.40070
 128        8XX         0.00255
 129        8YY         0.00255
 130        8ZZ         0.00269
 131        8XY         0.00012
 132        8XZ         0.00018
 133        8YZ         0.00018
 134        9XX        -0.00148
 135        9YY        -0.00148
 136        9ZZ         0.00044
 137        9XY         0.00161
 138        9XZ         0.00224
 139        9YZ         0.00224
 140       10XXX        0.02525
 141       10YYY        0.02525
 142       10ZZZ        0.02563
 143       10XYY        0.00841
 144       10XXY        0.00841
 145       10XXZ        0.00828
 146       10XZZ        0.00892
 147       10YZZ        0.00892
 148       10YYZ        0.00828
 149       10XYZ        0.00004
 150       11S          0.01825
 151       12PX         0.01955
 152       12PY         0.01955
 153       12PZ         0.01579
 154       13XX        -0.00797
 155       13YY        -0.00797
 156       13ZZ        -0.00512
 157       13XY        -0.00004
 158       13XZ         0.00247
 159       13YZ         0.00247
 160       14XXX        0.03376
 161       14YYY        0.03376
 162       14ZZZ        0.03493
 163       14XYY        0.01052
 164       14XXY        0.01052
 165       14XXZ        0.00962
 166       14XZZ        0.01188
 167       14YZZ        0.01188
 168       14YYZ        0.00962
 169       14XYZ        0.00022
 170 4   F  1S          1.96262
 171        2S          1.02391
 172        3S          0.26156
 173        4S          0.62875
 174        5PX         0.53137
 175        5PY         0.53137
 176        5PZ         0.51799
 177        6PX         0.77214
 178        6PY         0.77214
 179        6PZ         0.75767
 180        7PX         0.41933
 181        7PY         0.41933
 182        7PZ         0.40070
 183        8XX         0.00255
 184        8YY         0.00255
 185        8ZZ         0.00269
 186        8XY         0.00012
 187        8XZ         0.00018
 188        8YZ         0.00018
 189        9XX        -0.00148
 190        9YY        -0.00148
 191        9ZZ         0.00044
 192        9XY         0.00161
 193        9XZ         0.00224
 194        9YZ         0.00224
 195       10XXX        0.02525
 196       10YYY        0.02525
 197       10ZZZ        0.02563
 198       10XYY        0.00841
 199       10XXY        0.00841
 200       10XXZ        0.00828
 201       10XZZ        0.00892
 202       10YZZ        0.00892
 203       10YYZ        0.00828
 204       10XYZ        0.00004
 205       11S          0.01825
 206       12PX         0.01955
 207       12PY         0.01955
 208       12PZ         0.01579
 209       13XX        -0.00797
 210       13YY        -0.00797
 211       13ZZ        -0.00512
 212       13XY        -0.00004
 213       13XZ         0.00247
 214       13YZ         0.00247
 215       14XXX        0.03376
 216       14YYY        0.03376
 217       14ZZZ        0.03493
 218       14XYY        0.01052
 219       14XXY        0.01052
 220       14XXZ        0.00962
 221       14XZZ        0.01188
 222       14YZZ        0.01188
 223       14YYZ        0.00962
 224       14XYZ        0.00022
 225 5   F  1S          1.96262
 226        2S          1.02391
 227        3S          0.26156
 228        4S          0.62875
 229        5PX         0.53137
 230        5PY         0.53137
 231        5PZ         0.51799
 232        6PX         0.77214
 233        6PY         0.77214
 234        6PZ         0.75767
 235        7PX         0.41933
 236        7PY         0.41933
 237        7PZ         0.40070
 238        8XX         0.00255
 239        8YY         0.00255
 240        8ZZ         0.00269
 241        8XY         0.00012
 242        8XZ         0.00018
 243        8YZ         0.00018
 244        9XX        -0.00148
 245        9YY        -0.00148
 246        9ZZ         0.00044
 247        9XY         0.00161
 248        9XZ         0.00224
 249        9YZ         0.00224
 250       10XXX        0.02525
 251       10YYY        0.02525
 252       10ZZZ        0.02563
 253       10XYY        0.00841
 254       10XXY        0.00841
 255       10XXZ        0.00828
 256       10XZZ        0.00892
 257       10YZZ        0.00892
 258       10YYZ        0.00828
 259       10XYZ        0.00004
 260       11S          0.01825
 261       12PX         0.01955
 262       12PY         0.01955
 263       12PZ         0.01579
 264       13XX        -0.00797
 265       13YY        -0.00797
 266       13ZZ        -0.00512
 267       13XY        -0.00004
 268       13XZ         0.00247
 269       13YZ         0.00247
 270       14XXX        0.03376
 271       14YYY        0.03376
 272       14ZZZ        0.03493
 273       14XYY        0.01052
 274       14XXY        0.01052
 275       14XXZ        0.00962
 276       14XZZ        0.01188
 277       14YZZ        0.01188
 278       14YYZ        0.00962
 279       14XYZ        0.00022
          Condensed to atoms (all electrons):
              1          2          3          4          5
     1  Si  11.357937   0.298666   0.298666   0.298666   0.298666
     2  F    0.298666   9.080629  -0.014219  -0.001613  -0.001613
     3  F    0.298666  -0.014219   9.080629  -0.001613  -0.001613
     4  F    0.298666  -0.001613  -0.001613   9.080629  -0.014219
     5  F    0.298666  -0.001613  -0.001613  -0.014219   9.080629
 Mulliken atomic charges:
              1
     1  Si   1.447399
     2  F   -0.361850
     3  F   -0.361850
     4  F   -0.361850
     5  F   -0.361850
 Sum of Mulliken charges=   0.00000
 Atomic charges with hydrogens summed into heavy atoms:
              1
     1  Si   1.447399
     2  F   -0.361850
     3  F   -0.361850
     4  F   -0.361850
     5  F   -0.361850
 Sum of Mulliken charges=   0.00000
 Electronic spatial extent (au):  <R**2>=   385.4611
 Charge=     0.0000 electrons
 Dipole moment (field-independent basis, Debye):
    X=     0.0000    Y=     0.0000    Z=     0.0000  Tot=     0.0000
 Quadrupole moment (field-independent basis, Debye-Ang):
   XX=   -31.8462   YY=   -31.8462   ZZ=   -33.8908
   XY=     0.0000   XZ=     0.0000   YZ=     0.0000
 Traceless Quadrupole moment (field-independent basis, Debye-Ang):
   XX=     0.6815   YY=     0.6815   ZZ=    -1.3631
   XY=     0.0000   XZ=     0.0000   YZ=     0.0000
 Octapole moment (field-independent basis, Debye-Ang**2):
  XXX=     0.0000  YYY=     0.0000  ZZZ=     0.0000  XYY=     0.0000
  XXY=     0.0000  XXZ=     0.0000  XZZ=     0.0000  YZZ=     0.0000
  YYZ=     0.0000  XYZ=    -4.8186
 Hexadecapole moment (field-independent basis, Debye-Ang**3):
 XXXX=  -108.1179 YYYY=  -108.1179 ZZZZ=  -147.0848 XXXY=     0.0000
 XXXZ=     0.0000 YYYX=     0.0000 YYYZ=     0.0000 ZZZX=     0.0000
 ZZZY=     0.0000 XXYY=   -37.7424 XXZZ=   -44.8034 YYZZ=   -44.8034
 XXYZ=     0.0000 YYXZ=     0.0000 ZZXY=     0.0000
 N-N= 2.722287113267D+02 E-N=-2.187496875457D+03  KE= 6.869296070326D+02
 Symmetry A    KE= 3.106222806809D+02
 Symmetry B1   KE= 1.253252540612D+02
 Symmetry B2   KE= 1.254910361453D+02
 Symmetry B3   KE= 1.254910361453D+02
 Orbital energies and kinetic energies (alpha):
                           1         2
       1  (A)--O      -68.93775  92.23924
       2  (B2)--O     -26.33597  37.23776
       3  (B3)--O     -26.33597  37.23776
       4  (B1)--O     -26.33597  37.23789
       5  (A)--O      -26.33595  37.23816
       6  (A)--O       -6.26969  13.23893
       7  (B3)--O      -4.37920  12.19761
       8  (B2)--O      -4.37920  12.19761
       9  (B1)--O      -4.37846  12.20082
      10  (A)--O       -1.67511   3.66340
      11  (B1)--O      -1.64345   3.87152
      12  (B2)--O      -1.63210   3.92846
      13  (B3)--O      -1.63210   3.92846
      14  (A)--O       -0.86011   3.06539
      15  (B1)--O      -0.79252   3.02127
      16  (B3)--O      -0.77650   2.97774
      17  (B2)--O      -0.77650   2.97774
      18  (A)--O       -0.73907   2.89357
      19  (A)--O       -0.71892   2.97245
      20  (B1)--O      -0.71343   3.09222
      21  (B2)--O      -0.71210   3.10540
      22  (B3)--O      -0.71210   3.10540
      23  (B1)--O      -0.67966   3.23891
      24  (B3)--O      -0.67403   3.29856
      25  (B2)--O      -0.67403   3.29856
      26  (A)--V        0.03417   0.14716
      27  (B3)--V       0.05116   0.09331
      28  (B2)--V       0.05116   0.09331
      29  (B1)--V       0.05365   0.08767
      30  (A)--V        0.13613   0.65561
      31  (B1)--V       0.14111   0.19637
      32  (B3)--V       0.14342   0.19669
      33  (B2)--V       0.14342   0.19669
      34  (A)--V        0.16166   0.23008
      35  (A)--V        0.17312   0.27388
      36  (B2)--V       0.19387   0.65127
      37  (B3)--V       0.19387   0.65127
      38  (B1)--V       0.20180   0.49203
      39  (A)--V        0.21666   0.26904
      40  (B1)--V       0.24328   0.29834
      41  (B2)--V       0.24355   0.27174
      42  (B3)--V       0.24355   0.27174
      43  (B1)--V       0.26536   0.33698
      44  (B2)--V       0.26881   0.34029
      45  (B3)--V       0.26881   0.34029
      46  (A)--V        0.30033   2.02847
      47  (B2)--V       0.31520   1.09817
      48  (B3)--V       0.31520   1.09817
      49  (B1)--V       0.34592   0.76254
      50  (A)--V        0.36008   0.44018
      51  (A)--V        0.38189   0.51669
      52  (B1)--V       0.38489   0.76621
      53  (B2)--V       0.40881   0.95755
      54  (B3)--V       0.40881   0.95755
      55  (B3)--V       0.43079   0.78318
      56  (B2)--V       0.43079   0.78318
      57  (B1)--V       0.45890   1.13546
      58  (A)--V        0.49023   1.58919
      59  (A)--V        0.51299   1.05054
      60  (A)--V        0.54117   1.38426
      61  (B2)--V       0.57033   0.75756
      62  (B3)--V       0.57033   0.75756
      63  (B1)--V       0.60326   0.91901
      64  (A)--V        0.61032   1.27878
      65  (B2)--V       0.61532   0.79857
      66  (B3)--V       0.61532   0.79857
      67  (B2)--V       0.63438   1.34026
      68  (B3)--V       0.63438   1.34026
      69  (B1)--V       0.64448   0.84383
      70  (B1)--V       0.66944   1.58476
      71  (A)--V        0.68804   1.31036
      72  (B1)--V       0.89735   1.78898
      73  (A)--V        0.92396   1.43868
      74  (B3)--V       0.93001   1.75452
      75  (B2)--V       0.93001   1.75452
      76  (A)--V        0.94991   1.71319
      77  (A)--V        0.95752   1.38795
      78  (B3)--V       0.97471   1.54902
      79  (B2)--V       0.97471   1.54902
      80  (B1)--V       0.98534   1.40818
      81  (A)--V        0.99332   1.30710
      82  (B1)--V       1.02115   1.88374
      83  (B2)--V       1.04249   1.58948
      84  (B3)--V       1.04249   1.58948
      85  (A)--V        1.06535   1.51850
      86  (B1)--V       1.10422   1.58524
      87  (B2)--V       1.11382   1.70693
      88  (B3)--V       1.11382   1.70693
      89  (B1)--V       1.13798   1.33272
      90  (B3)--V       1.20777   1.49324
      91  (B2)--V       1.20777   1.49324
      92  (A)--V        1.23265   2.17456
      93  (B2)--V       1.24248   1.88612
      94  (B3)--V       1.24248   1.88612
      95  (B1)--V       1.26872   2.13836
      96  (A)--V        1.28366   2.02508
      97  (A)--V        1.28617   2.13686
      98  (B2)--V       1.31388   2.23567
      99  (B3)--V       1.31388   2.23567
     100  (B1)--V       1.33215   2.38582
     101  (B2)--V       1.35097   2.30884
     102  (B3)--V       1.35097   2.30884
     103  (B1)--V       1.38395   2.47619
     104  (B1)--V       1.39783   2.09807
     105  (B3)--V       1.41144   2.09769
     106  (B2)--V       1.41144   2.09769
     107  (B1)--V       1.44027   2.68376
     108  (A)--V        1.47718   1.95710
     109  (B3)--V       1.55936   2.94963
     110  (B2)--V       1.55936   2.94963
     111  (A)--V        1.75622   2.30157
     112  (A)--V        1.79939   2.37467
     113  (B1)--V       1.80125   2.17923
     114  (B3)--V       1.80468   2.20253
     115  (B2)--V       1.80468   2.20253
     116  (A)--V        1.81725   2.70532
     117  (B3)--V       1.84927   2.62599
     118  (B2)--V       1.84927   2.62599
     119  (B1)--V       1.87815   2.62242
     120  (A)--V        1.93640   2.79225
     121  (B1)--V       1.98509   2.49058
     122  (B2)--V       2.07376   2.60479
     123  (B3)--V       2.07376   2.60479
     124  (B3)--V       2.17375   3.48580
     125  (B2)--V       2.17375   3.48580
     126  (B1)--V       2.20457   3.45603
     127  (B1)--V       2.72254   3.49334
     128  (A)--V        2.72838   3.29313
     129  (B3)--V       2.73103   3.78385
     130  (B2)--V       2.73103   3.78385
     131  (A)--V        2.76207   3.46036
     132  (B2)--V       2.81536   3.87990
     133  (B3)--V       2.81536   3.87990
     134  (B1)--V       2.83556   3.90904
     135  (B2)--V       2.88410   4.22815
     136  (B3)--V       2.88410   4.22815
     137  (B1)--V       2.88656   3.43802
     138  (A)--V        2.89002   3.88608
     139  (B1)--V       2.91204   4.12953
     140  (B3)--V       2.91532   3.61953
     141  (B2)--V       2.91532   3.61953
     142  (A)--V        2.93212   3.42364
     143  (A)--V        2.93346   4.08462
     144  (B1)--V       2.93881   4.25479
     145  (B3)--V       2.95329   3.62216
     146  (B2)--V       2.95329   3.62216
     147  (B1)--V       2.98538   3.84275
     148  (B3)--V       2.99015   4.22665
     149  (B2)--V       2.99015   4.22665
     150  (A)--V        2.99640   3.73867
     151  (B1)--V       3.01830   3.90658
     152  (B2)--V       3.02845   3.99761
     153  (B3)--V       3.02845   3.99761
     154  (A)--V        3.06677   4.26539
     155  (A)--V        3.09540   4.11496
     156  (B3)--V       3.12440   4.18192
     157  (B2)--V       3.12440   4.18192
     158  (B1)--V       3.17941   3.75047
     159  (A)--V        3.19492   4.12306
     160  (B3)--V       3.21643   4.57783
     161  (B2)--V       3.21643   4.57783
     162  (B1)--V       3.30856   4.41562
     163  (A)--V        3.31273   4.42352
     164  (A)--V        3.34809   5.12596
     165  (A)--V        3.42266   5.39068
     166  (B1)--V       3.49083   5.66777
     167  (B2)--V       3.49110   5.50260
     168  (B3)--V       3.49110   5.50260
     169  (B1)--V       3.55140   4.39471
     170  (B3)--V       3.60423   4.07096
     171  (B2)--V       3.60423   4.07096
     172  (A)--V        3.67835   4.87069
     173  (B2)--V       3.73535   4.67484
     174  (B3)--V       3.73535   4.67484
     175  (B1)--V       3.76881   4.37170
     176  (B1)--V       3.78886   4.14043
     177  (A)--V        3.85362   4.36531
     178  (B3)--V       3.88708   4.41066
     179  (B2)--V       3.88708   4.41066
     180  (A)--V        3.90987   5.07842
     181  (A)--V        3.94250   7.15028
     182  (B1)--V       4.02087   6.75921
     183  (B3)--V       4.04621   4.80606
     184  (B2)--V       4.04621   4.80606
     185  (B3)--V       4.08207   4.65923
     186  (B2)--V       4.08207   4.65923
     187  (B1)--V       4.19044   4.97009
     188  (B3)--V       4.30638   7.39966
     189  (B2)--V       4.30638   7.39966
     190  (A)--V        4.37423   9.31171
     191  (B1)--V       4.38827   6.75866
     192  (B3)--V       5.33535  12.28749
     193  (B2)--V       5.33535  12.28749
     194  (B1)--V       5.58465  12.19709
     195  (A)--V        7.18601  10.65046
     196  (B2)--V       7.22380  10.88600
     197  (B3)--V       7.22380  10.88600
     198  (B1)--V       7.37887  11.13369
     199  (B2)--V       7.55575  14.70590
     200  (B3)--V       7.55575  14.70590
     201  (B1)--V       7.56336  14.74476
     202  (B2)--V       7.62960  14.72974
     203  (B3)--V       7.62960  14.72974
     204  (A)--V        7.67374  14.74287
     205  (B1)--V       7.67725  14.52716
     206  (A)--V        7.75402  14.71510
     207  (B1)--V       7.84931  13.08300
     208  (B3)--V       8.00674  12.86005
     209  (B2)--V       8.00674  12.86005
     210  (A)--V        8.43844  12.43993
     211  (A)--V        8.75392  10.29879
     212  (B1)--V       8.78605  10.20780
     213  (A)--V        8.80010  10.19618
     214  (B3)--V       8.80140  10.20067
     215  (B2)--V       8.80140  10.20067
     216  (B2)--V       8.84994  10.31961
     217  (B3)--V       8.84994  10.31961
     218  (B1)--V       8.86257  10.45148
     219  (A)--V        8.88597  10.49380
     220  (B1)--V       8.88772  10.45524
     221  (A)--V        8.89560  10.35252
     222  (B2)--V       9.02007  11.01217
     223  (B3)--V       9.02007  11.01217
     224  (B1)--V       9.06018  10.75016
     225  (B2)--V       9.10295  10.73739
     226  (B3)--V       9.10295  10.73739
     227  (A)--V        9.15195  10.83610
     228  (A)--V        9.19725  10.66133
     229  (B1)--V       9.28183  10.87307
     230  (B1)--V       9.30636  10.95028
     231  (B3)--V       9.31664  11.06952
     232  (B2)--V       9.31664  11.06952
     233  (A)--V        9.31899  12.69372
     234  (A)--V        9.36395  12.76089
     235  (B3)--V       9.37848  11.70969
     236  (B2)--V       9.37848  11.70969
     237  (B1)--V       9.37989  12.69190
     238  (B3)--V       9.41956  12.49075
     239  (B2)--V       9.41956  12.49075
     240  (A)--V        9.42882  11.06982
     241  (B1)--V       9.44630  12.45656
     242  (B2)--V       9.44637  12.59621
     243  (B3)--V       9.44637  12.59621
     244  (B1)--V       9.47884  11.49539
     245  (B3)--V       9.48534  11.71745
     246  (B2)--V       9.48534  11.71745
     247  (A)--V        9.50504  13.10276
     248  (B1)--V       9.57022  12.92539
     249  (B3)--V       9.57370  12.28104
     250  (B2)--V       9.57370  12.28104
     251  (A)--V        9.62887  13.20918
     252  (B3)--V       9.63047  12.36806
     253  (B2)--V       9.63047  12.36806
     254  (A)--V        9.84930  13.45932
     255  (B1)--V       9.95622  13.23647
     256  (B3)--V      10.06938  13.79255
     257  (B2)--V      10.06938  13.79255
     258  (B1)--V      10.17948  13.94749
     259  (A)--V       15.05498  28.78350
     260  (B3)--V      15.52417  30.17551
     261  (B2)--V      15.52417  30.17551
     262  (B1)--V      15.77289  30.75705
     263  (B3)--V      18.89189  24.71632
     264  (B2)--V      18.89189  24.71632
     265  (B1)--V      18.94813  24.80854
     266  (B2)--V      19.18681  25.29730
     267  (B3)--V      19.18681  25.29730
     268  (A)--V       19.41271  25.73749
     269  (B1)--V      19.42938  25.74796
     270  (B1)--V      19.72892  26.59941
     271  (A)--V       19.76213  26.43268
     272  (A)--V       20.12699  29.20970
     273  (B3)--V      20.35783  27.60043
     274  (B2)--V      20.35783  27.60043
     275  (A)--V       22.41622  31.90108
     276  (B2)--V      23.96660  47.80176
     277  (B3)--V      23.96660  47.80176
     278  (B1)--V      23.96744  47.28266
     279  (A)--V       24.47095  49.71018
 Total kinetic energy from orbitals= 6.869296070326D+02

 Test job not archived.
 1\1\GINC-TITAN\SP\RHF\Aug-CC-pVTZ\F4Si1\RRL581A\29-Jan-2006\0\\# HF AU
 G-CC-PVTZ 6D 10F SCF(CONVER=10) SYMMETRY(PG=D2) POP=FULL GFINPUT TEST\
 \SiF4\\0,1\Si,0,0.,0.,0.\F,0,1.00962,0.84103,0.84103\F,0,1.00962,-0.84
 103,-0.84103\F,0,-1.00962,0.84103,-0.84103\F,0,-1.00962,-0.84103,0.841
 03\\Version=SGI64-G03RevC.02\State=1-A\HF=-687.1548138\RMSD=5.052e-11\
 Dipole=0.,0.,0.\PG=D02 [O(Si1),X(F4)]\\@


 ALL OUR THINKING ABOUT NATURE MUST NECESSARILY MOVE IN CIRCLES OR SPIRALS;
 FOR WE CAN ONLY UNDERSTAND NATURE IF WE THINK ABOUT HER, AND WE CAN ONLY
 THINK BECAUSE OUR BRAIN IS BUILT IN ACCORDANCE WITH NATURE'S LAWS.

                                             -- TIMOTHY FERRIS, "GALAXIES"
 Job cpu time:  0 days  0 hours 22 minutes 13.8 seconds.
 File lengths (MBytes):  RWF=     55 Int=      0 D2E=      0 Chk=     13 Scr=      1
 Normal termination of Gaussian 03 at Sun Jan 29 01:12:13 2006.
1326.7u 7.6s 22:19 99% 0+0k 448+5io 0pf+0w
Sun Jan 29 01:12:13 CST 2006
