Warning: no access to tty (Bad file number).
Thus no job control in this shell.
 Entering Gaussian System, Link 0=g03
 Initial command:
 /usr/local/g03/g03/l1.exe /work/45697.titan/Gau-3267445.inp -scrdir=/work/45697.titan/
 Entering Link 1 = /usr/local/g03/g03/l1.exe PID=   3267921.
  
 Copyright (c) 1988,1990,1992,1993,1995,1998,2003,2004, Gaussian, Inc.
                  All Rights Reserved.
  
 This is the Gaussian(R) 03 program.  It is based on the
 the Gaussian(R) 98 system (copyright 1998, Gaussian, Inc.),
 the Gaussian(R) 94 system (copyright 1995, Gaussian, Inc.),
 the Gaussian 92(TM) system (copyright 1992, Gaussian, Inc.),
 the Gaussian 90(TM) system (copyright 1990, Gaussian, Inc.),
 the Gaussian 88(TM) system (copyright 1988, Gaussian, Inc.),
 the Gaussian 86(TM) system (copyright 1986, Carnegie Mellon
 University), and the Gaussian 82(TM) system (copyright 1983,
 Carnegie Mellon University). Gaussian is a federally registered
 trademark of Gaussian, Inc.
  
 This software contains proprietary and confidential information,
 including trade secrets, belonging to Gaussian, Inc.
  
 This software is provided under written license and may be
 used, copied, transmitted, or stored only in accord with that
 written license.
  
 The following legend is applicable only to US Government
 contracts under FAR:
  
                    RESTRICTED RIGHTS LEGEND
  
 Use, reproduction and disclosure by the US Government is
 subject to restrictions as set forth in subparagraphs (a)
 and (c) of the Commercial Computer Software - Restricted
 Rights clause in FAR 52.227-19.
  
 Gaussian, Inc.
 340 Quinnipiac St., Bldg. 40, Wallingford CT 06492
  
  
 ---------------------------------------------------------------
 Warning -- This program may not be used in any manner that
 competes with the business of Gaussian, Inc. or will provide
 assistance to any competitor of Gaussian, Inc.  The licensee
 of this program is prohibited from giving any competitor of
 Gaussian, Inc. access to this program.  By using this program,
 the user acknowledges that Gaussian, Inc. is engaged in the
 business of creating and licensing software in the field of
 computational chemistry and represents and warrants to the
 licensee that it is not a competitor of Gaussian, Inc. and that
 it will not use this program in any manner prohibited above.
 ---------------------------------------------------------------
  

 Cite this work as:
 Gaussian 03, Revision C.02,
 M. J. Frisch, G. W. Trucks, H. B. Schlegel, G. E. Scuseria, 
 M. A. Robb, J. R. Cheeseman, J. A. Montgomery, Jr., T. Vreven, 
 K. N. Kudin, J. C. Burant, J. M. Millam, S. S. Iyengar, J. Tomasi, 
 V. Barone, B. Mennucci, M. Cossi, G. Scalmani, N. Rega, 
 G. A. Petersson, H. Nakatsuji, M. Hada, M. Ehara, K. Toyota, 
 R. Fukuda, J. Hasegawa, M. Ishida, T. Nakajima, Y. Honda, O. Kitao, 
 H. Nakai, M. Klene, X. Li, J. E. Knox, H. P. Hratchian, J. B. Cross, 
 C. Adamo, J. Jaramillo, R. Gomperts, R. E. Stratmann, O. Yazyev, 
 A. J. Austin, R. Cammi, C. Pomelli, J. W. Ochterski, P. Y. Ayala, 
 K. Morokuma, G. A. Voth, P. Salvador, J. J. Dannenberg, 
 V. G. Zakrzewski, S. Dapprich, A. D. Daniels, M. C. Strain, 
 O. Farkas, D. K. Malick, A. D. Rabuck, K. Raghavachari, 
 J. B. Foresman, J. V. Ortiz, Q. Cui, A. G. Baboul, S. Clifford, 
 J. Cioslowski, B. B. Stefanov, G. Liu, A. Liashenko, P. Piskorz, 
 I. Komaromi, R. L. Martin, D. J. Fox, T. Keith, M. A. Al-Laham, 
 C. Y. Peng, A. Nanayakkara, M. Challacombe, P. M. W. Gill, 
 B. Johnson, W. Chen, M. W. Wong, C. Gonzalez, and J. A. Pople, 
 Gaussian, Inc., Wallingford CT, 2004.
 
 ******************************************
 Gaussian 03:  SGI64-G03RevC.02 12-Jun-2004
                 9-Sep-2005 
 ******************************************
 %Mem=800MB
 %NProc=4
 Will use up to    4 processors via shared memory.
 ------------------------------------------------
 # ROHF/cc-pVTZ SCF=tight 6D 10F Gfinput PUNCH=MO
 ------------------------------------------------
 1/38=1/1;
 2/17=6,18=5,40=1/2;
 3/5=16,6=1,8=22,11=2,16=1,24=10,25=1,30=1/1,2,3;
 4/7=6/1;
 5/5=2,32=2,38=5/2;
 6/7=2,8=2,9=2,10=2,28=1/1;
 99/5=1,9=1,10=32/99;
 ---
 NO2
 ---
 Symbolic Z-matrix:
 Charge =  0 Multiplicity = 2
 N
 O                    N    RNO
 O                    N    RNO      O    AONO
       Variables:
  RNO                   1.19455                  
  AONO                133.851                    
 
                          Input orientation:                          
 ---------------------------------------------------------------------
 Center     Atomic     Atomic              Coordinates (Angstroms)
 Number     Number      Type              X           Y           Z
 ---------------------------------------------------------------------
    1          7             0        0.000000    0.000000    0.000000
    2          8             0        0.000000    0.000000    1.194550
    3          8             0        0.861442    0.000000   -0.827567
 ---------------------------------------------------------------------
                    Distance matrix (angstroms):
                    1          2          3
     1  N    0.000000
     2  O    1.194550   0.000000
     3  O    1.194550   2.197962   0.000000
 Stoichiometry    NO2(2)
 Framework group  C2V[C2(N),SGV(O2)]
 Deg. of freedom     2
 Full point group                 C2V     NOp   4
 Largest Abelian subgroup         C2V     NOp   4
 Largest concise Abelian subgroup C2      NOp   2
                         Standard orientation:                         
 ---------------------------------------------------------------------
 Center     Atomic     Atomic              Coordinates (Angstroms)
 Number     Number      Type              X           Y           Z
 ---------------------------------------------------------------------
    1          7             0        0.000000    0.000000    0.325689
    2          8             0        0.000000    1.098981   -0.142489
    3          8             0        0.000000   -1.098981   -0.142489
 ---------------------------------------------------------------------
 Rotational constants (GHZ):    236.7293609     13.0805111     12.3955911
 Standard basis: CC-pVTZ (6D, 10F)
 AO basis set in the form of general basis input:
  1 0
 S   7 1.00       0.000000000000
      0.1142000000D+05  0.5345638595D-03
      0.1712000000D+04  0.4134356596D-02
      0.3893000000D+03  0.2123353578D-01
      0.1100000000D+03  0.8250062241D-01
      0.3557000000D+02  0.2381388709D+00
      0.1254000000D+02  0.4425515469D+00
      0.4644000000D+01  0.3537574220D+00
 S   7 1.00       0.000000000000
      0.1142000000D+05  0.9021026067D-05
      0.1712000000D+04  0.5980366520D-04
      0.3893000000D+03  0.2582351507D-03
      0.3557000000D+02 -0.6887949590D-02
      0.1254000000D+02 -0.5836349557D-01
      0.4644000000D+01 -0.1661629770D+00
      0.5118000000D+00  0.1071192188D+01
 S   1 1.00       0.000000000000
      0.1293000000D+01  0.1000000000D+01
 S   1 1.00       0.000000000000
      0.1787000000D+00  0.1000000000D+01
 P   3 1.00       0.000000000000
      0.2663000000D+02  0.3980721230D-01
      0.5948000000D+01  0.2490026605D+00
      0.1742000000D+01  0.8104797267D+00
 P   1 1.00       0.000000000000
      0.5550000000D+00  0.1000000000D+01
 P   1 1.00       0.000000000000
      0.1725000000D+00  0.1000000000D+01
 D   1 1.00       0.000000000000
      0.1654000000D+01  0.1000000000D+01
 D   1 1.00       0.000000000000
      0.4690000000D+00  0.1000000000D+01
 F   1 1.00       0.000000000000
      0.1093000000D+01  0.1000000000D+01
 ****
  2 0
 S   7 1.00       0.000000000000
      0.1533000000D+05  0.5198089434D-03
      0.2299000000D+04  0.4020256215D-02
      0.5224000000D+03  0.2071282673D-01
      0.1473000000D+03  0.8101055358D-01
      0.4755000000D+02  0.2359629851D+00
      0.1676000000D+02  0.4426534455D+00
      0.6207000000D+01  0.3570644227D+00
 S   7 1.00       0.000000000000
      0.1533000000D+05  0.9133766235D-05
      0.2299000000D+04  0.6073625959D-04
      0.5224000000D+03  0.2687822822D-03
      0.4755000000D+02 -0.6969400301D-02
      0.1676000000D+02 -0.6064569004D-01
      0.6207000000D+01 -0.1655195358D+00
      0.6882000000D+00  0.1071513689D+01
 S   1 1.00       0.000000000000
      0.1752000000D+01  0.1000000000D+01
 S   1 1.00       0.000000000000
      0.2384000000D+00  0.1000000000D+01
 P   3 1.00       0.000000000000
      0.3446000000D+02  0.4116348957D-01
      0.7749000000D+01  0.2577628359D+00
      0.2280000000D+01  0.8024192744D+00
 P   1 1.00       0.000000000000
      0.7156000000D+00  0.1000000000D+01
 P   1 1.00       0.000000000000
      0.2140000000D+00  0.1000000000D+01
 D   1 1.00       0.000000000000
      0.2314000000D+01  0.1000000000D+01
 D   1 1.00       0.000000000000
      0.6450000000D+00  0.1000000000D+01
 F   1 1.00       0.000000000000
      0.1428000000D+01  0.1000000000D+01
 ****
  3 0
 S   7 1.00       0.000000000000
      0.1533000000D+05  0.5198089434D-03
      0.2299000000D+04  0.4020256215D-02
      0.5224000000D+03  0.2071282673D-01
      0.1473000000D+03  0.8101055358D-01
      0.4755000000D+02  0.2359629851D+00
      0.1676000000D+02  0.4426534455D+00
      0.6207000000D+01  0.3570644227D+00
 S   7 1.00       0.000000000000
      0.1533000000D+05  0.9133766235D-05
      0.2299000000D+04  0.6073625959D-04
      0.5224000000D+03  0.2687822822D-03
      0.4755000000D+02 -0.6969400301D-02
      0.1676000000D+02 -0.6064569004D-01
      0.6207000000D+01 -0.1655195358D+00
      0.6882000000D+00  0.1071513689D+01
 S   1 1.00       0.000000000000
      0.1752000000D+01  0.1000000000D+01
 S   1 1.00       0.000000000000
      0.2384000000D+00  0.1000000000D+01
 P   3 1.00       0.000000000000
      0.3446000000D+02  0.4116348957D-01
      0.7749000000D+01  0.2577628359D+00
      0.2280000000D+01  0.8024192744D+00
 P   1 1.00       0.000000000000
      0.7156000000D+00  0.1000000000D+01
 P   1 1.00       0.000000000000
      0.2140000000D+00  0.1000000000D+01
 D   1 1.00       0.000000000000
      0.2314000000D+01  0.1000000000D+01
 D   1 1.00       0.000000000000
      0.6450000000D+00  0.1000000000D+01
 F   1 1.00       0.000000000000
      0.1428000000D+01  0.1000000000D+01
 ****

 There are    40 symmetry adapted basis functions of A1  symmetry.
 There are    14 symmetry adapted basis functions of A2  symmetry.
 There are    19 symmetry adapted basis functions of B1  symmetry.
 There are    32 symmetry adapted basis functions of B2  symmetry.
 Integral buffers will be    131072 words long.
 Raffenetti 2 integral format.
 Two-electron integral symmetry is turned on.
   105 basis functions,   159 primitive gaussians,   105 cartesian basis functions
    12 alpha electrons       11 beta electrons
       nuclear repulsion energy        65.0237250314 Hartrees.
 NAtoms=    3 NActive=    3 NUniq=    2 SFac= 2.76D+00 NAtFMM=   60 Big=F
 One-electron integrals computed using PRISM.
 NBasis=   105 RedAO= T  NBF=    40    14    19    32
 NBsUse=   105 1.00D-06 NBFU=    40    14    19    32
 Harris functional with IExCor=  205 diagonalized for initial guess.
 ExpMin= 1.72D-01 ExpMax= 1.53D+04 ExpMxC= 5.22D+02 IAcc=1 IRadAn=         1 AccDes= 1.00D-06
 HarFok:  IExCor= 205 AccDes= 1.00D-06 IRadAn=         1 IDoV=1
 ScaDFX=  1.000000  1.000000  1.000000  1.000000
 Initial guess orbital symmetries:
       Occupied  (A1) (B2) (A1) (A1) (B2) (A1) (B2) (A1) (B1) (A2)
                 (B2) (A1)
       Virtual   (B1) (A1) (B2) (A1) (A1) (B1) (B2) (A1) (B2) (A2)
                 (A1) (B1) (B2) (A1) (B1) (B2) (A2) (A1) (B2) (A1)
                 (A2) (B1) (A1) (B2) (A1) (B1) (B2) (B2) (A1) (A2)
                 (A1) (B1) (A1) (B2) (A1) (B2) (A2) (B2) (B1) (A1)
                 (B1) (A1) (B2) (A2) (B1) (B2) (A1) (A1) (B1) (A2)
                 (A1) (B2) (A1) (B2) (A2) (B2) (B1) (A1) (B1) (A2)
                 (A1) (B2) (B1) (A1) (A1) (A2) (B2) (B1) (A1) (A2)
                 (B2) (A1) (B1) (B2) (A1) (A2) (B1) (B2) (A1) (B2)
                 (A2) (B1) (B2) (A1) (B2) (A1) (A1) (B2) (A1) (B2)
                 (A1) (B2) (A1)
 The electronic state of the initial guess is 2-A1.
 Requested convergence on RMS density matrix=1.00D-08 within 128 cycles.
 Requested convergence on MAX density matrix=1.00D-06.
 Requested convergence on             energy=1.00D-06.
 No special actions if energy rises.
 Keep R1 and R2 integrals in memory in canonical form, NReq=    33567393.
 SCF Done:  E(ROHF) =  -204.101538436     A.U. after   14 cycles
             Convg  =    0.2263D-08             -V/T =  2.0021
             S**2   =   0.7500
 Annihilation of the first spin contaminant:
 S**2 before annihilation     0.7500,   after     0.7500

 **********************************************************************

            Population analysis using the SCF density.

 **********************************************************************

 Orbital symmetries:
       Occupied  (B2) (A1) (A1) (A1) (B2) (A1) (B2) (A1) (B1) (B2)
                 (A2) (A1)
       Virtual   (B1) (A1) (B2) (A1) (B1) (A1) (B2) (A1) (A2) (A1)
                 (B2) (B1) (B2) (A1) (B1) (B2) (A1) (A2) (B2) (A1)
                 (A2) (A1) (B1) (B2) (A1) (B1) (B2) (B2) (A2) (A1)
                 (A1) (B1) (A1) (B2) (A1) (B2) (A2) (B2) (B1) (A1)
                 (B1) (A1) (A2) (B2) (B1) (B2) (A1) (A1) (B1) (A2)
                 (A1) (B2) (A1) (B2) (B1) (A2) (B2) (A1) (B1) (A2)
                 (A1) (B1) (B2) (A1) (A1) (A2) (B2) (B1) (A1) (A2)
                 (B2) (A1) (B1) (B2) (A2) (A1) (B1) (B2) (A1) (B2)
                 (B1) (A2) (B2) (A1) (B2) (A1) (A1) (B2) (A1) (B2)
                 (A1) (B2) (A1)
 The electronic state is 2-A1.
 Alpha  occ. eigenvalues --  -20.67697 -20.67690 -15.86876  -1.65036  -1.47027
 Alpha  occ. eigenvalues --   -0.90636  -0.76849  -0.75787  -0.75369  -0.53431
 Alpha  occ. eigenvalues --   -0.52398  -0.15585
 Alpha virt. eigenvalues --    0.08624   0.35396   0.42996   0.44078   0.53599
 Alpha virt. eigenvalues --    0.56208   0.64652   0.68759   0.74780   0.76201
 Alpha virt. eigenvalues --    0.78492   0.81006   0.82090   0.98457   1.12812
 Alpha virt. eigenvalues --    1.17225   1.26663   1.30166   1.57004   1.62086
 Alpha virt. eigenvalues --    1.71044   1.79280   1.82694   1.84453   2.01893
 Alpha virt. eigenvalues --    2.20970   2.23126   2.42040   2.44784   2.46689
 Alpha virt. eigenvalues --    2.66941   2.71243   2.75836   2.76290   2.85067
 Alpha virt. eigenvalues --    3.35406   3.48045   3.49536   3.49801   3.81630
 Alpha virt. eigenvalues --    4.03414   4.07403   4.22868   4.23888   4.46127
 Alpha virt. eigenvalues --    4.53075   4.61333   4.69067   4.78759   4.86818
 Alpha virt. eigenvalues --    4.90845   5.03848   5.22579   5.28664   5.48124
 Alpha virt. eigenvalues --    5.49311   5.49395   5.52576   5.60616   5.80074
 Alpha virt. eigenvalues --    5.94246   5.94377   5.94903   6.14195   6.48235
 Alpha virt. eigenvalues --    6.66101   6.68060   6.71047   6.74313   6.77555
 Alpha virt. eigenvalues --    6.86841   6.91697   6.98044   7.00874   7.02084
 Alpha virt. eigenvalues --    7.02942   7.24197   7.30098   7.49595   7.52304
 Alpha virt. eigenvalues --    7.60457   7.61079   7.95682   8.14232   8.46415
 Alpha virt. eigenvalues --    8.95229  11.70253  11.83430  12.90101  13.77828
 Alpha virt. eigenvalues --   16.64430  16.69961  16.73702
          Condensed to atoms (all electrons):
              1          2          3
     1  N    5.702654   0.433015   0.433015
     2  O    0.433015   7.878013  -0.095370
     3  O    0.433015  -0.095370   7.878013
 Mulliken atomic charges:
              1
     1  N    0.431316
     2  O   -0.215658
     3  O   -0.215658
 Sum of Mulliken charges=   0.00000
 Atomic charges with hydrogens summed into heavy atoms:
              1
     1  N    0.431316
     2  O   -0.215658
     3  O   -0.215658
 Sum of Mulliken charges=   0.00000
          Atomic-Atomic Spin Densities.
              1          2          3
     1  N    0.871127  -0.147111  -0.147111
     2  O   -0.147111   0.340413   0.018246
     3  O   -0.147111   0.018246   0.340413
 Mulliken atomic spin densities:
              1
     1  N    0.576905
     2  O    0.211547
     3  O    0.211547
 Sum of Mulliken spin densities=   1.00000
 Electronic spatial extent (au):  <R**2>=   108.9285
 Charge=     0.0000 electrons
 Dipole moment (field-independent basis, Debye):
    X=     0.0000    Y=     0.0000    Z=     0.7641  Tot=     0.7641
 Quadrupole moment (field-independent basis, Debye-Ang):
   XX=   -14.7939   YY=   -18.4985   ZZ=   -15.2755
   XY=     0.0000   XZ=     0.0000   YZ=     0.0000
 Traceless Quadrupole moment (field-independent basis, Debye-Ang):
   XX=     1.3954   YY=    -2.3092   ZZ=     0.9138
   XY=     0.0000   XZ=     0.0000   YZ=     0.0000
 Octapole moment (field-independent basis, Debye-Ang**2):
  XXX=     0.0000  YYY=     0.0000  ZZZ=    -0.2078  XYY=     0.0000
  XXY=     0.0000  XXZ=     0.0426  XZZ=     0.0000  YZZ=     0.0000
  YYZ=    -0.4248  XYZ=     0.0000
 Hexadecapole moment (field-independent basis, Debye-Ang**3):
 XXXX=   -10.7519 YYYY=   -90.4109 ZZZZ=   -15.8803 XXXY=     0.0000
 XXXZ=     0.0000 YYYX=     0.0000 YYYZ=     0.0000 ZZZX=     0.0000
 ZZZY=     0.0000 XXYY=   -16.6292 XXZZ=    -4.3489 YYZZ=   -17.3666
 XXYZ=     0.0000 YYXZ=     0.0000 ZZXY=     0.0000
 N-N= 6.502372503138D+01 E-N=-6.121038886879D+02  KE= 2.036810104324D+02
 Symmetry A1   KE= 1.206343120200D+02
 Symmetry A2   KE= 4.753506546065D+00
 Symmetry B1   KE= 3.767506106894D+00
 Symmetry B2   KE= 7.452568575951D+01
                          Isotropic Fermi Contact Couplings
        Atom                 a.u.       MegaHertz       Gauss      10(-4) cm-1
     1  N(14)              0.42434     137.10504      48.92248      45.73332
     2  O(17)              0.04685     -28.40050     -10.13401      -9.47339
     3  O(17)              0.04685     -28.40050     -10.13401      -9.47339
 --------------------------------------------------------
       Center         ----  Spin Dipole Couplings  ----
                      3XX-RR        3YY-RR        3ZZ-RR
 --------------------------------------------------------
     1   Atom       -0.652236     -0.612118      1.264354
     2   Atom       -0.558970     -0.466007      1.024977
     3   Atom       -0.558970     -0.466007      1.024977
 --------------------------------------------------------
                        XY            XZ            YZ
 --------------------------------------------------------
     1   Atom        0.000000      0.000000      0.000000
     2   Atom        0.000000      0.000000     -0.234197
     3   Atom        0.000000      0.000000      0.234197
 --------------------------------------------------------


 ---------------------------------------------------------------------------------
              Anisotropic Spin Dipole Couplings in Principal Axis System
 ---------------------------------------------------------------------------------

       Atom             a.u.   MegaHertz   Gauss  10(-4) cm-1        Axes

              Baa    -0.6522   -25.155    -8.976    -8.391  1.0000  0.0000  0.0000
     1 N(14)  Bbb    -0.6121   -23.608    -8.424    -7.875  0.0000  1.0000  0.0000
              Bcc     1.2644    48.763    17.400    16.266  0.0000  0.0000  1.0000
 
              Baa    -0.5590    40.447    14.432    13.492  1.0000  0.0000  0.0000
     2 O(17)  Bbb    -0.5019    36.319    12.960    12.115  0.0000  0.9884  0.1516
              Bcc     1.0609   -76.766   -27.392   -25.606  0.0000 -0.1516  0.9884
 
              Baa    -0.5590    40.447    14.432    13.492  1.0000  0.0000  0.0000
     3 O(17)  Bbb    -0.5019    36.319    12.960    12.115  0.0000  0.9884 -0.1516
              Bcc     1.0609   -76.766   -27.392   -25.606  0.0000  0.1516  0.9884
 

 ---------------------------------------------------------------------------------

 1\1\GINC-TITAN\SP\ROHF\CC-pVTZ\N1O2(2)\RRL581A\09-Sep-2005\0\\# ROHF/C
 C-PVTZ SCF=TIGHT 6D 10F GFINPUT PUNCH=MO\\NO2\\0,2\N\O,1,1.19455\O,1,1
 .19455,2,133.851\\Version=SGI64-G03RevC.02\State=2-A1\HF=-204.1015384\
 RMSD=2.263e-09\Dipole=-0.2765578,0.,-0.1178165\PG=C02V [C2(N1),SGV(O2)
 ]\\@


  THE LARGE PRINT GIVETH,
  AND THE SMALL PRINT TAKETH AWAY.

                     -- TOM WAITES
 Job cpu time:  0 days  0 hours  0 minutes 43.8 seconds.
 File lengths (MBytes):  RWF=     17 Int=      0 D2E=      0 Chk=     10 Scr=      1
 Normal termination of Gaussian 03 at Fri Sep  9 23:25:53 2005.
(5D15.8)
    1 Alpha MO OE=-0.20676970D+02
 0.00000000D+00 0.00000000D+00 0.00000000D+00 0.00000000D+00 0.00000000D+00
-0.44670635D-03 0.00000000D+00 0.00000000D+00 0.68093759D-02 0.00000000D+00
 0.00000000D+00 0.32099090D-02 0.00000000D+00 0.00000000D+00 0.00000000D+00
 0.00000000D+00 0.00000000D+00 0.00000000D+00-0.38597522D-03 0.00000000D+00
 0.00000000D+00 0.00000000D+00 0.00000000D+00 0.00000000D+00-0.21339102D-02
 0.00000000D+00-0.58810659D-03 0.00000000D+00 0.00000000D+00-0.73641757D-03
 0.00000000D+00 0.00000000D+00-0.36727086D-03 0.00000000D+00 0.00000000D+00
 0.69043328D+00-0.12762923D-01 0.32378440D-01-0.64559850D-02 0.00000000D+00
-0.19450791D-02 0.72993142D-03 0.00000000D+00 0.46055136D-02-0.13777112D-02
 0.00000000D+00 0.11864133D-02-0.76260597D-03 0.15713755D-02 0.17800200D-02
 0.16298650D-02 0.00000000D+00 0.00000000D+00-0.61658967D-04 0.32625265D-02
 0.14695305D-02 0.31450264D-02 0.00000000D+00 0.00000000D+00 0.86875597D-03
 0.00000000D+00-0.88437682D-03 0.36094539D-03 0.00000000D+00-0.58933224D-03
 0.16576942D-03 0.00000000D+00-0.50583259D-03-0.96743300D-04 0.00000000D+00
-0.69043328D+00 0.12762923D-01-0.32378440D-01 0.64559850D-02 0.00000000D+00
-0.19450791D-02-0.72993142D-03 0.00000000D+00 0.46055136D-02 0.13777112D-02
 0.00000000D+00 0.11864133D-02 0.76260597D-03-0.15713755D-02-0.17800200D-02
-0.16298650D-02 0.00000000D+00 0.00000000D+00-0.61658967D-04-0.32625265D-02
-0.14695305D-02-0.31450264D-02 0.00000000D+00 0.00000000D+00 0.86875597D-03
 0.00000000D+00-0.88437682D-03-0.36094539D-03 0.00000000D+00-0.58933224D-03
-0.16576942D-03 0.00000000D+00-0.50583259D-03 0.96743300D-04 0.00000000D+00
    2 Alpha MO OE=-0.20676904D+02
 0.39986617D-03 0.32343249D-02-0.63032379D-04 0.52097980D-02 0.00000000D+00
 0.00000000D+00 0.91527213D-04 0.00000000D+00 0.00000000D+00-0.21517120D-02
 0.00000000D+00 0.00000000D+00-0.12642230D-02-0.38960211D-03 0.24852364D-03
-0.29979033D-03 0.00000000D+00 0.00000000D+00 0.00000000D+00-0.75682993D-03
 0.24747862D-02-0.22177964D-03 0.00000000D+00 0.00000000D+00 0.00000000D+00
 0.00000000D+00 0.00000000D+00 0.39029246D-03 0.00000000D+00 0.00000000D+00
 0.19349478D-03 0.00000000D+00 0.00000000D+00-0.17587423D-03 0.00000000D+00
 0.69051492D+00-0.11940137D-01 0.32224286D-01-0.56197786D-02 0.00000000D+00
-0.18257077D-02 0.83111454D-03 0.00000000D+00 0.38225970D-02-0.20293928D-02
 0.00000000D+00 0.12622979D-02-0.34693385D-03 0.13824430D-02 0.16281483D-02
 0.14935235D-02 0.00000000D+00 0.00000000D+00-0.63471655D-04 0.30730682D-02
 0.16159655D-02 0.27074670D-02 0.00000000D+00 0.00000000D+00 0.79667127D-03
 0.00000000D+00-0.82770646D-03 0.57392291D-03 0.00000000D+00-0.55167671D-03
 0.29311497D-03 0.00000000D+00-0.41868999D-03 0.88750925D-04 0.00000000D+00
 0.69051492D+00-0.11940137D-01 0.32224286D-01-0.56197786D-02 0.00000000D+00
 0.18257077D-02 0.83111454D-03 0.00000000D+00-0.38225970D-02-0.20293928D-02
 0.00000000D+00-0.12622979D-02-0.34693385D-03 0.13824430D-02 0.16281483D-02
 0.14935235D-02 0.00000000D+00 0.00000000D+00 0.63471655D-04 0.30730682D-02
 0.16159655D-02 0.27074670D-02 0.00000000D+00 0.00000000D+00-0.79667127D-03
 0.00000000D+00 0.82770646D-03 0.57392291D-03 0.00000000D+00 0.55167671D-03
 0.29311497D-03 0.00000000D+00 0.41868999D-03 0.88750925D-04 0.00000000D+00
    3 Alpha MO OE=-0.15868761D+02
 0.97785174D+00-0.15030495D-01 0.43967512D-01-0.30723203D-02 0.00000000D+00
 0.00000000D+00-0.14809679D-02 0.00000000D+00 0.00000000D+00 0.62706817D-03
 0.00000000D+00 0.00000000D+00-0.17481523D-03 0.14173356D-02 0.22896707D-02
 0.17531616D-02 0.00000000D+00 0.00000000D+00 0.00000000D+00 0.34421142D-02
 0.37665402D-02 0.34478570D-02 0.00000000D+00 0.00000000D+00 0.00000000D+00
 0.00000000D+00 0.00000000D+00-0.47819231D-04 0.00000000D+00 0.00000000D+00
-0.43107735D-04 0.00000000D+00 0.00000000D+00-0.36455797D-03 0.00000000D+00
-0.27064407D-03 0.14248494D-03-0.51387781D-04 0.55285731D-03 0.00000000D+00
-0.32333379D-03 0.20413390D-03 0.00000000D+00 0.13616451D-03-0.25987896D-03
 0.00000000D+00 0.16499418D-04 0.44072182D-04-0.26116444D-04 0.44202907D-04
-0.16871577D-04 0.00000000D+00 0.00000000D+00-0.51647865D-04-0.16437608D-03
-0.26992442D-03-0.26119775D-03 0.00000000D+00 0.00000000D+00 0.13915779D-03
 0.00000000D+00 0.38741896D-05 0.21937833D-03 0.00000000D+00-0.15373475D-03
 0.10919131D-03 0.00000000D+00-0.58867943D-04-0.11040968D-03 0.00000000D+00
-0.27064407D-03 0.14248494D-03-0.51387781D-04 0.55285731D-03 0.00000000D+00
 0.32333379D-03 0.20413390D-03 0.00000000D+00-0.13616451D-03-0.25987896D-03
 0.00000000D+00-0.16499418D-04 0.44072182D-04-0.26116444D-04 0.44202907D-04
-0.16871577D-04 0.00000000D+00 0.00000000D+00 0.51647865D-04-0.16437608D-03
-0.26992442D-03-0.26119775D-03 0.00000000D+00 0.00000000D+00-0.13915779D-03
 0.00000000D+00-0.38741896D-05 0.21937833D-03 0.00000000D+00 0.15373475D-03
 0.10919131D-03 0.00000000D+00 0.58867943D-04-0.11040968D-03 0.00000000D+00
    4 Alpha MO OE=-0.16503618D+01
-0.15456906D+00 0.33997890D+00 0.94209455D-01 0.70923185D-01 0.00000000D+00
 0.00000000D+00-0.57481450D-01 0.00000000D+00 0.00000000D+00-0.53359869D-01
 0.00000000D+00 0.00000000D+00-0.54072316D-02-0.66839597D-02 0.19997845D-01
-0.31831744D-03 0.00000000D+00 0.00000000D+00 0.00000000D+00-0.11220199D-01
 0.18159689D-01-0.62029907D-02 0.00000000D+00 0.00000000D+00 0.00000000D+00
 0.00000000D+00 0.00000000D+00-0.17101858D-02 0.00000000D+00 0.00000000D+00
-0.49149460D-03 0.00000000D+00 0.00000000D+00-0.12721338D-01 0.00000000D+00
-0.11483478D+00 0.25905811D+00 0.71551596D-01 0.11722296D+00 0.00000000D+00
-0.62245728D-01 0.19250118D-01 0.00000000D+00-0.67238564D-01 0.17383989D-01
 0.00000000D+00-0.17446936D-01 0.51030651D-02-0.24263704D-02 0.80389917D-02
-0.10392678D-02 0.00000000D+00 0.00000000D+00-0.42639005D-02-0.41117594D-02
 0.12871039D-01-0.33961483D-02 0.00000000D+00 0.00000000D+00-0.71891831D-02
 0.00000000D+00-0.67446668D-02 0.60420799D-03 0.00000000D+00 0.38839073D-03
 0.66964159D-04 0.00000000D+00-0.13010953D-02 0.46142223D-02 0.00000000D+00
-0.11483478D+00 0.25905811D+00 0.71551596D-01 0.11722296D+00 0.00000000D+00
 0.62245728D-01 0.19250118D-01 0.00000000D+00 0.67238564D-01 0.17383989D-01
 0.00000000D+00 0.17446936D-01 0.51030651D-02-0.24263704D-02 0.80389917D-02
-0.10392678D-02 0.00000000D+00 0.00000000D+00 0.42639005D-02-0.41117594D-02
 0.12871039D-01-0.33961483D-02 0.00000000D+00 0.00000000D+00 0.71891831D-02
 0.00000000D+00 0.67446668D-02 0.60420799D-03 0.00000000D+00-0.38839073D-03
 0.66964159D-04 0.00000000D+00 0.13010953D-02 0.46142223D-02 0.00000000D+00
    5 Alpha MO OE=-0.14702704D+01
 0.00000000D+00 0.00000000D+00 0.00000000D+00 0.00000000D+00 0.00000000D+00
 0.17244228D+00 0.00000000D+00 0.00000000D+00 0.16698497D+00 0.00000000D+00
 0.00000000D+00 0.18056992D-01 0.00000000D+00 0.00000000D+00 0.00000000D+00
 0.00000000D+00 0.00000000D+00 0.00000000D+00-0.15979643D-01 0.00000000D+00
 0.00000000D+00 0.00000000D+00 0.00000000D+00 0.00000000D+00-0.19415450D-01
 0.00000000D+00 0.17398947D-01 0.00000000D+00 0.00000000D+00 0.51367451D-03
 0.00000000D+00 0.00000000D+00 0.23287182D-02 0.00000000D+00 0.00000000D+00
-0.14325561D+00 0.33199661D+00 0.90266622D-01 0.19215687D+00 0.00000000D+00
-0.49550195D-01 0.25468843D-01 0.00000000D+00-0.52003295D-01 0.28039349D-01
 0.00000000D+00-0.21270099D-01 0.10047632D-01-0.23917626D-02 0.63344629D-02
-0.40753423D-03 0.00000000D+00 0.00000000D+00-0.48711310D-02-0.71410031D-02
 0.91970907D-02-0.41786061D-02 0.00000000D+00 0.00000000D+00-0.86500995D-02
 0.00000000D+00-0.81044594D-02-0.50717929D-03 0.00000000D+00 0.34752501D-03
-0.20146140D-03 0.00000000D+00-0.12275184D-02 0.51416194D-02 0.00000000D+00
 0.14325561D+00-0.33199661D+00-0.90266622D-01-0.19215687D+00 0.00000000D+00
-0.49550195D-01-0.25468843D-01 0.00000000D+00-0.52003295D-01-0.28039349D-01
 0.00000000D+00-0.21270099D-01-0.10047632D-01 0.23917626D-02-0.63344629D-02
 0.40753423D-03 0.00000000D+00 0.00000000D+00-0.48711310D-02 0.71410031D-02
-0.91970907D-02 0.41786061D-02 0.00000000D+00 0.00000000D+00-0.86500995D-02
 0.00000000D+00-0.81044594D-02 0.50717929D-03 0.00000000D+00 0.34752501D-03
 0.20146140D-03 0.00000000D+00-0.12275184D-02-0.51416194D-02 0.00000000D+00
    6 Alpha MO OE=-0.90635719D+00
-0.13025186D+00 0.32547961D+00 0.11610181D+00 0.82047410D-01 0.00000000D+00
 0.00000000D+00 0.24830290D-02 0.00000000D+00 0.00000000D+00-0.46263211D-02
 0.00000000D+00 0.00000000D+00 0.13841285D-01 0.43131213D-02 0.10483922D-01
 0.52059772D-02 0.00000000D+00 0.00000000D+00 0.00000000D+00 0.26370073D-01
 0.26142566D-01 0.25681238D-01 0.00000000D+00 0.00000000D+00 0.00000000D+00
 0.00000000D+00 0.00000000D+00 0.33620660D-02 0.00000000D+00 0.00000000D+00
 0.15058033D-02 0.00000000D+00 0.00000000D+00-0.17223002D-02 0.00000000D+00
 0.10922504D+00-0.27389069D+00-0.80888470D-01-0.26260811D+00 0.00000000D+00
-0.13320454D+00 0.62637605D-01 0.00000000D+00-0.14527942D+00 0.69889249D-01
 0.00000000D+00-0.79079287D-01 0.39810229D-01-0.38901588D-02 0.58185751D-02
-0.22716077D-02 0.00000000D+00 0.00000000D+00-0.52277046D-02-0.68345250D-02
 0.12769915D-01-0.37348842D-02 0.00000000D+00 0.00000000D+00-0.11587104D-01
 0.00000000D+00-0.75291857D-02 0.69661486D-03 0.00000000D+00-0.19366495D-03
 0.59850987D-04 0.00000000D+00-0.23414938D-02 0.50171476D-02 0.00000000D+00
 0.10922504D+00-0.27389069D+00-0.80888470D-01-0.26260811D+00 0.00000000D+00
 0.13320454D+00 0.62637605D-01 0.00000000D+00 0.14527942D+00 0.69889249D-01
 0.00000000D+00 0.79079287D-01 0.39810229D-01-0.38901588D-02 0.58185751D-02
-0.22716077D-02 0.00000000D+00 0.00000000D+00 0.52277046D-02-0.68345250D-02
 0.12769915D-01-0.37348842D-02 0.00000000D+00 0.00000000D+00 0.11587104D-01
 0.00000000D+00 0.75291857D-02 0.69661486D-03 0.00000000D+00 0.19366495D-03
 0.59850987D-04 0.00000000D+00 0.23414938D-02 0.50171476D-02 0.00000000D+00
    7 Alpha MO OE=-0.76849412D+00
 0.00000000D+00 0.00000000D+00 0.00000000D+00 0.00000000D+00 0.00000000D+00
 0.20713053D+00 0.00000000D+00 0.00000000D+00 0.25237347D+00 0.00000000D+00
 0.00000000D+00 0.23048306D-01 0.00000000D+00 0.00000000D+00 0.00000000D+00
 0.00000000D+00 0.00000000D+00 0.00000000D+00-0.11086867D-01 0.00000000D+00
 0.00000000D+00 0.00000000D+00 0.00000000D+00 0.00000000D+00-0.19515669D-02
 0.00000000D+00 0.90081950D-02 0.00000000D+00 0.00000000D+00-0.24624285D-02
 0.00000000D+00 0.00000000D+00-0.33819518D-02 0.00000000D+00 0.00000000D+00
 0.70189004D-01-0.17859897D+00-0.54957408D-01-0.19593698D+00 0.00000000D+00
-0.17654872D+00 0.10243431D+00 0.00000000D+00-0.19492426D+00 0.11670338D+00
 0.00000000D+00-0.12502756D+00 0.72866546D-01-0.52941463D-02 0.77555369D-02
-0.18731396D-02 0.00000000D+00 0.00000000D+00-0.81608441D-02-0.98481144D-02
 0.15835556D-01-0.44456452D-02 0.00000000D+00 0.00000000D+00-0.15829015D-01
 0.00000000D+00-0.11627501D-01 0.57495593D-03 0.00000000D+00-0.56931153D-03
 0.24512015D-03 0.00000000D+00-0.31243515D-02 0.74018347D-02 0.00000000D+00
-0.70189004D-01 0.17859897D+00 0.54957408D-01 0.19593698D+00 0.00000000D+00
-0.17654872D+00-0.10243431D+00 0.00000000D+00-0.19492426D+00-0.11670338D+00
 0.00000000D+00-0.12502756D+00-0.72866546D-01 0.52941463D-02-0.77555369D-02
 0.18731396D-02 0.00000000D+00 0.00000000D+00-0.81608441D-02 0.98481144D-02
-0.15835556D-01 0.44456452D-02 0.00000000D+00 0.00000000D+00-0.15829015D-01
 0.00000000D+00-0.11627501D-01-0.57495593D-03 0.00000000D+00-0.56931153D-03
-0.24512015D-03 0.00000000D+00-0.31243515D-02-0.74018347D-02 0.00000000D+00
    8 Alpha MO OE=-0.75787213D+00
-0.34307355D-01 0.84218061D-01 0.25156156D-01 0.95067814D-01 0.00000000D+00
 0.00000000D+00 0.20670831D+00 0.00000000D+00 0.00000000D+00 0.26027617D+00
 0.00000000D+00 0.00000000D+00 0.10566136D+00 0.34398540D-02 0.81524468D-02
-0.11273779D-01 0.00000000D+00 0.00000000D+00 0.00000000D+00 0.24587696D-02
 0.25834841D-01-0.27868801D-01 0.00000000D+00 0.00000000D+00 0.00000000D+00
 0.00000000D+00 0.00000000D+00 0.25877781D-02 0.00000000D+00 0.00000000D+00
-0.28481239D-03 0.00000000D+00 0.00000000D+00 0.89527075D-02 0.00000000D+00
-0.10412817D-01 0.25583520D-01 0.50601947D-02 0.44498032D-01 0.00000000D+00
 0.10989541D+00 0.16084724D+00 0.00000000D+00 0.13559664D+00 0.20173060D+00
 0.00000000D+00 0.77744026D-01 0.12295953D+00 0.67105913D-03-0.69563632D-02
 0.49943026D-02 0.00000000D+00 0.00000000D+00-0.44332111D-02-0.13576243D-02
-0.18598321D-01 0.10268824D-01 0.00000000D+00 0.00000000D+00-0.12231716D-01
 0.00000000D+00 0.62632968D-02 0.14169275D-02 0.00000000D+00-0.43022012D-03
 0.17366227D-03 0.00000000D+00-0.50538406D-02 0.24653804D-02 0.00000000D+00
-0.10412817D-01 0.25583520D-01 0.50601947D-02 0.44498032D-01 0.00000000D+00
-0.10989541D+00 0.16084724D+00 0.00000000D+00-0.13559664D+00 0.20173060D+00
 0.00000000D+00-0.77744026D-01 0.12295953D+00 0.67105913D-03-0.69563632D-02
 0.49943026D-02 0.00000000D+00 0.00000000D+00 0.44332111D-02-0.13576243D-02
-0.18598321D-01 0.10268824D-01 0.00000000D+00 0.00000000D+00 0.12231716D-01
 0.00000000D+00-0.62632968D-02 0.14169275D-02 0.00000000D+00 0.43022012D-03
 0.17366227D-03 0.00000000D+00 0.50538406D-02 0.24653804D-02 0.00000000D+00
    9 Alpha MO OE=-0.75368588D+00
 0.00000000D+00 0.00000000D+00 0.00000000D+00 0.00000000D+00 0.21859552D+00
 0.00000000D+00 0.00000000D+00 0.29017928D+00 0.00000000D+00 0.00000000D+00
 0.14224292D+00 0.00000000D+00 0.00000000D+00 0.00000000D+00 0.00000000D+00
 0.00000000D+00 0.00000000D+00-0.94540391D-02 0.00000000D+00 0.00000000D+00
 0.00000000D+00 0.00000000D+00 0.00000000D+00-0.21564211D-01 0.00000000D+00
-0.27319701D-02 0.00000000D+00 0.00000000D+00 0.12495304D-01 0.00000000D+00
 0.00000000D+00 0.19955373D-03 0.00000000D+00 0.00000000D+00 0.00000000D+00
 0.00000000D+00 0.00000000D+00 0.00000000D+00 0.00000000D+00 0.18022354D+00
 0.00000000D+00 0.00000000D+00 0.23730960D+00 0.00000000D+00 0.00000000D+00
 0.13265841D+00 0.00000000D+00 0.00000000D+00 0.00000000D+00 0.00000000D+00
 0.00000000D+00-0.81996763D-02 0.32574185D-02 0.00000000D+00 0.00000000D+00
 0.00000000D+00 0.00000000D+00-0.23984764D-01 0.10738732D-01 0.00000000D+00
-0.35588237D-02 0.00000000D+00 0.00000000D+00 0.47540176D-02 0.00000000D+00
 0.00000000D+00-0.10108191D-02 0.00000000D+00 0.00000000D+00-0.34434093D-02
 0.00000000D+00 0.00000000D+00 0.00000000D+00 0.00000000D+00 0.18022354D+00
 0.00000000D+00 0.00000000D+00 0.23730960D+00 0.00000000D+00 0.00000000D+00
 0.13265841D+00 0.00000000D+00 0.00000000D+00 0.00000000D+00 0.00000000D+00
 0.00000000D+00 0.81996763D-02 0.32574185D-02 0.00000000D+00 0.00000000D+00
 0.00000000D+00 0.00000000D+00 0.23984764D-01 0.10738732D-01 0.00000000D+00
-0.35588237D-02 0.00000000D+00 0.00000000D+00 0.47540176D-02 0.00000000D+00
 0.00000000D+00-0.10108191D-02 0.00000000D+00 0.00000000D+00 0.34434093D-02
   10 Alpha MO OE=-0.53430710D+00
 0.00000000D+00 0.00000000D+00 0.00000000D+00 0.00000000D+00 0.00000000D+00
-0.47225634D-02 0.00000000D+00 0.00000000D+00-0.85628440D-02 0.00000000D+00
 0.00000000D+00 0.62842702D-01 0.00000000D+00 0.00000000D+00 0.00000000D+00
 0.00000000D+00 0.00000000D+00 0.00000000D+00 0.19904882D-01 0.00000000D+00
 0.00000000D+00 0.00000000D+00 0.00000000D+00 0.00000000D+00 0.40202160D-01
 0.00000000D+00 0.15875027D-01 0.00000000D+00 0.00000000D+00 0.21082939D-02
 0.00000000D+00 0.00000000D+00-0.78297607D-02 0.00000000D+00 0.00000000D+00
 0.39767442D-02-0.84203873D-02 0.23110709D-02-0.58390061D-01 0.00000000D+00
 0.14489731D+00 0.22396822D+00 0.00000000D+00 0.18339684D+00 0.28417265D+00
 0.00000000D+00 0.15080330D+00 0.20855091D+00 0.12638800D-02-0.43971748D-02
 0.43523623D-02 0.00000000D+00 0.00000000D+00-0.20464262D-02 0.75363973D-02
-0.13941350D-01 0.17186980D-01 0.00000000D+00 0.00000000D+00-0.79027325D-02
 0.00000000D+00 0.67356633D-02 0.15058467D-02 0.00000000D+00-0.21521333D-03
 0.66321482D-03 0.00000000D+00-0.32621725D-02-0.61426005D-04 0.00000000D+00
-0.39767442D-02 0.84203873D-02-0.23110709D-02 0.58390061D-01 0.00000000D+00
 0.14489731D+00-0.22396822D+00 0.00000000D+00 0.18339684D+00-0.28417265D+00
 0.00000000D+00 0.15080330D+00-0.20855091D+00-0.12638800D-02 0.43971748D-02
-0.43523623D-02 0.00000000D+00 0.00000000D+00-0.20464262D-02-0.75363973D-02
 0.13941350D-01-0.17186980D-01 0.00000000D+00 0.00000000D+00-0.79027325D-02
 0.00000000D+00 0.67356633D-02-0.15058467D-02 0.00000000D+00-0.21521333D-03
-0.66321482D-03 0.00000000D+00-0.32621725D-02 0.61426005D-04 0.00000000D+00
   11 Alpha MO OE=-0.52398494D+00
 0.00000000D+00 0.00000000D+00 0.00000000D+00 0.00000000D+00 0.00000000D+00
 0.00000000D+00 0.00000000D+00 0.00000000D+00 0.00000000D+00 0.00000000D+00
 0.00000000D+00 0.00000000D+00 0.00000000D+00 0.00000000D+00 0.00000000D+00
 0.00000000D+00 0.22385297D-01 0.00000000D+00 0.00000000D+00 0.00000000D+00
 0.00000000D+00 0.00000000D+00 0.63794179D-01 0.00000000D+00 0.00000000D+00
 0.00000000D+00 0.00000000D+00 0.00000000D+00 0.00000000D+00 0.00000000D+00
 0.00000000D+00 0.00000000D+00 0.00000000D+00 0.00000000D+00-0.77153110D-02
 0.00000000D+00 0.00000000D+00 0.00000000D+00 0.00000000D+00 0.25714991D+00
 0.00000000D+00 0.00000000D+00 0.31417082D+00 0.00000000D+00 0.00000000D+00
 0.26449160D+00 0.00000000D+00 0.00000000D+00 0.00000000D+00 0.00000000D+00
 0.00000000D+00-0.53712466D-02 0.25855760D-02 0.00000000D+00 0.00000000D+00
 0.00000000D+00 0.00000000D+00-0.19630989D-01 0.76333328D-02 0.00000000D+00
 0.38358159D-02 0.00000000D+00 0.00000000D+00 0.64448953D-02 0.00000000D+00
 0.00000000D+00 0.20010650D-02 0.00000000D+00 0.00000000D+00-0.29744015D-02
 0.00000000D+00 0.00000000D+00 0.00000000D+00 0.00000000D+00-0.25714991D+00
 0.00000000D+00 0.00000000D+00-0.31417082D+00 0.00000000D+00 0.00000000D+00
-0.26449160D+00 0.00000000D+00 0.00000000D+00 0.00000000D+00 0.00000000D+00
 0.00000000D+00-0.53712466D-02-0.25855760D-02 0.00000000D+00 0.00000000D+00
 0.00000000D+00 0.00000000D+00-0.19630989D-01-0.76333328D-02 0.00000000D+00
-0.38358159D-02 0.00000000D+00 0.00000000D+00-0.64448953D-02 0.00000000D+00
 0.00000000D+00-0.20010650D-02 0.00000000D+00 0.00000000D+00-0.29744015D-02
   12 Alpha MO OE=-0.15585474D+00
-0.67682346D-01 0.20415226D+00 0.40527947D-01 0.48140629D+00 0.00000000D+00
 0.00000000D+00 0.27156931D+00 0.00000000D+00 0.00000000D+00 0.36471030D+00
 0.00000000D+00 0.00000000D+00 0.19545369D+00 0.30525691D-02-0.28227188D-01
 0.10840887D-01 0.00000000D+00 0.00000000D+00 0.00000000D+00-0.15443672D-01
-0.74666074D-01 0.16830212D-01 0.00000000D+00 0.00000000D+00 0.00000000D+00
 0.00000000D+00 0.00000000D+00-0.25824432D-02 0.00000000D+00 0.00000000D+00
-0.14036766D-02 0.00000000D+00 0.00000000D+00 0.20355317D-02 0.00000000D+00
 0.18640875D-01-0.40283509D-01-0.11757813D-01-0.68027284D-01 0.00000000D+00
 0.26418975D-01-0.20461563D+00 0.00000000D+00 0.27007317D-01-0.23553065D+00
 0.00000000D+00 0.23271868D-01-0.24565492D+00 0.10783134D-02-0.54674211D-02
 0.84787734D-03 0.00000000D+00 0.00000000D+00 0.18791907D-02 0.44250182D-02
-0.81828842D-02 0.30378852D-02 0.00000000D+00 0.00000000D+00 0.47126979D-02
 0.00000000D+00 0.38070531D-02-0.72803351D-02 0.00000000D+00-0.14099200D-02
-0.27754255D-02 0.00000000D+00 0.57426863D-03-0.60318525D-02 0.00000000D+00
 0.18640875D-01-0.40283509D-01-0.11757813D-01-0.68027284D-01 0.00000000D+00
-0.26418975D-01-0.20461563D+00 0.00000000D+00-0.27007317D-01-0.23553065D+00
 0.00000000D+00-0.23271868D-01-0.24565492D+00 0.10783134D-02-0.54674211D-02
 0.84787734D-03 0.00000000D+00 0.00000000D+00-0.18791907D-02 0.44250182D-02
-0.81828842D-02 0.30378852D-02 0.00000000D+00 0.00000000D+00-0.47126979D-02
 0.00000000D+00-0.38070531D-02-0.72803351D-02 0.00000000D+00 0.14099200D-02
-0.27754255D-02 0.00000000D+00-0.57426863D-03-0.60318525D-02 0.00000000D+00
   13 Alpha MO OE= 0.86240223D-01
 0.00000000D+00 0.00000000D+00 0.00000000D+00 0.00000000D+00 0.29086919D+00
 0.00000000D+00 0.00000000D+00 0.38489688D+00 0.00000000D+00 0.00000000D+00
 0.59241409D+00 0.00000000D+00 0.00000000D+00 0.00000000D+00 0.00000000D+00
 0.00000000D+00 0.00000000D+00 0.52003174D-02 0.00000000D+00 0.00000000D+00
 0.00000000D+00 0.00000000D+00 0.00000000D+00 0.14427419D-01 0.00000000D+00
 0.98803628D-02 0.00000000D+00 0.00000000D+00 0.12970111D-02 0.00000000D+00
 0.00000000D+00 0.26266056D-02 0.00000000D+00 0.00000000D+00 0.00000000D+00
 0.00000000D+00 0.00000000D+00 0.00000000D+00 0.00000000D+00-0.19952214D+00
 0.00000000D+00 0.00000000D+00-0.18999257D+00 0.00000000D+00 0.00000000D+00
-0.41673423D+00 0.00000000D+00 0.00000000D+00 0.00000000D+00 0.00000000D+00
 0.00000000D+00-0.61214582D-02 0.27117924D-02 0.00000000D+00 0.00000000D+00
 0.00000000D+00 0.00000000D+00-0.97171033D-02 0.70067063D-02 0.00000000D+00
-0.21804712D-01 0.00000000D+00 0.00000000D+00-0.73752939D-02 0.00000000D+00
 0.00000000D+00-0.90772102D-02 0.00000000D+00 0.00000000D+00-0.10443771D-02
 0.00000000D+00 0.00000000D+00 0.00000000D+00 0.00000000D+00-0.19952214D+00
 0.00000000D+00 0.00000000D+00-0.18999257D+00 0.00000000D+00 0.00000000D+00
-0.41673423D+00 0.00000000D+00 0.00000000D+00 0.00000000D+00 0.00000000D+00
 0.00000000D+00 0.61214582D-02 0.27117924D-02 0.00000000D+00 0.00000000D+00
 0.00000000D+00 0.00000000D+00 0.97171033D-02 0.70067063D-02 0.00000000D+00
-0.21804712D-01 0.00000000D+00 0.00000000D+00-0.73752939D-02 0.00000000D+00
 0.00000000D+00-0.90772102D-02 0.00000000D+00 0.00000000D+00 0.10443771D-02
   14 Alpha MO OE= 0.35396214D+00
 0.64203990D-02 0.14564861D+00-0.54295928D+00 0.57839148D+01 0.00000000D+00
 0.00000000D+00-0.12130685D+00 0.00000000D+00 0.00000000D+00-0.37284920D+00
 0.00000000D+00 0.00000000D+00-0.12220295D+01-0.94047286D-01-0.12982416D+00
-0.10494211D+00 0.00000000D+00 0.00000000D+00 0.00000000D+00-0.76865258D+00
-0.48694155D+00-0.74647711D+00 0.00000000D+00 0.00000000D+00 0.00000000D+00
 0.00000000D+00 0.00000000D+00 0.28815124D-01 0.00000000D+00 0.00000000D+00
 0.13989047D-01 0.00000000D+00 0.00000000D+00-0.27992247D-01 0.00000000D+00
 0.72547360D-01-0.12123755D+00-0.26836137D-01-0.19493676D+01 0.00000000D+00
 0.79770157D-01 0.34573641D-01 0.00000000D+00 0.46729732D-01-0.18283837D-01
 0.00000000D+00 0.11140658D+01-0.12602183D+00-0.48011755D-02-0.10613391D-02
-0.89859801D-02 0.00000000D+00 0.00000000D+00 0.43761739D-02 0.65057339D-01
-0.81530254D-01 0.91971916D-02 0.00000000D+00 0.00000000D+00 0.75265089D-01
 0.00000000D+00 0.55972489D-01 0.13087555D-01 0.00000000D+00 0.56250534D-02
 0.84007371D-02 0.00000000D+00 0.19502987D-01-0.18116227D-01 0.00000000D+00
 0.72547360D-01-0.12123755D+00-0.26836137D-01-0.19493676D+01 0.00000000D+00
-0.79770157D-01 0.34573641D-01 0.00000000D+00-0.46729732D-01-0.18283837D-01
 0.00000000D+00-0.11140658D+01-0.12602183D+00-0.48011755D-02-0.10613391D-02
-0.89859801D-02 0.00000000D+00 0.00000000D+00-0.43761739D-02 0.65057339D-01
-0.81530254D-01 0.91971916D-02 0.00000000D+00 0.00000000D+00-0.75265089D-01
 0.00000000D+00-0.55972489D-01 0.13087555D-01 0.00000000D+00-0.56250534D-02
 0.84007371D-02 0.00000000D+00-0.19502987D-01-0.18116227D-01 0.00000000D+00
   15 Alpha MO OE= 0.42995989D+00
 0.00000000D+00 0.00000000D+00 0.00000000D+00 0.00000000D+00 0.00000000D+00
 0.73215712D-01 0.00000000D+00 0.00000000D+00 0.30866431D+00 0.00000000D+00
 0.00000000D+00 0.38875626D+01 0.00000000D+00 0.00000000D+00 0.00000000D+00
 0.00000000D+00 0.00000000D+00 0.00000000D+00 0.20761223D-01 0.00000000D+00
 0.00000000D+00 0.00000000D+00 0.00000000D+00 0.00000000D+00-0.30759286D+00
 0.00000000D+00 0.11316841D+00 0.00000000D+00 0.00000000D+00-0.97780836D-03
 0.00000000D+00 0.00000000D+00 0.38038833D-01 0.00000000D+00 0.00000000D+00
 0.70603853D-01-0.98280487D-01 0.12224038D-01-0.31128937D+01 0.00000000D+00
-0.20531791D-01-0.65055780D-01 0.00000000D+00 0.82137925D-02-0.55822731D-01
 0.00000000D+00 0.12572829D+01-0.87111166D+00-0.31495978D-02 0.54982267D-02
 0.49766607D-03 0.00000000D+00 0.00000000D+00-0.79442835D-02 0.10647036D+00
-0.95083687D-01 0.98653959D-01 0.00000000D+00 0.00000000D+00 0.86212410D-01
 0.00000000D+00 0.50605980D-01-0.12247912D-01 0.00000000D+00 0.30477949D-02
-0.56215187D-02 0.00000000D+00 0.84820857D-02-0.27069089D-01 0.00000000D+00
-0.70603853D-01 0.98280487D-01-0.12224038D-01 0.31128937D+01 0.00000000D+00
-0.20531791D-01 0.65055780D-01 0.00000000D+00 0.82137925D-02 0.55822731D-01
 0.00000000D+00 0.12572829D+01 0.87111166D+00 0.31495978D-02-0.54982267D-02
-0.49766607D-03 0.00000000D+00 0.00000000D+00-0.79442835D-02-0.10647036D+00
 0.95083687D-01-0.98653959D-01 0.00000000D+00 0.00000000D+00 0.86212410D-01
 0.00000000D+00 0.50605980D-01 0.12247912D-01 0.00000000D+00 0.30477949D-02
 0.56215187D-02 0.00000000D+00 0.84820857D-02 0.27069089D-01 0.00000000D+00
   16 Alpha MO OE= 0.44078242D+00
 0.11676024D+00-0.34482972D+00-0.65996156D+00 0.13812713D+00 0.00000000D+00
 0.00000000D+00 0.44988530D-01 0.00000000D+00 0.00000000D+00-0.37236623D+00
 0.00000000D+00 0.00000000D+00 0.14371968D+01-0.12042127D+00-0.83924540D-01
-0.10385780D+00 0.00000000D+00 0.00000000D+00 0.00000000D+00-0.70985892D+00
-0.84749105D+00-0.72237525D+00 0.00000000D+00 0.00000000D+00 0.00000000D+00
 0.00000000D+00 0.00000000D+00 0.12593025D+00 0.00000000D+00 0.00000000D+00
 0.55553267D-01 0.00000000D+00 0.00000000D+00 0.72966088D-01 0.00000000D+00
-0.36057218D-01 0.82560721D-01-0.10633558D-01 0.11562259D+01 0.00000000D+00
-0.10890438D+00-0.43225416D-02 0.00000000D+00-0.12524471D+00-0.42067416D-03
 0.00000000D+00-0.93056742D+00 0.80242793D-01 0.18294968D-02-0.18876833D-01
 0.17785506D-02 0.00000000D+00 0.00000000D+00 0.56374843D-02-0.68341821D-01
-0.29443497D-01-0.53704103D-01 0.00000000D+00 0.00000000D+00 0.93213802D-04
 0.00000000D+00-0.14296185D-01 0.11985328D-01 0.00000000D+00-0.13454912D-01
 0.54103848D-02 0.00000000D+00-0.10534924D-01-0.45734206D-02 0.00000000D+00
-0.36057218D-01 0.82560721D-01-0.10633558D-01 0.11562259D+01 0.00000000D+00
 0.10890438D+00-0.43225416D-02 0.00000000D+00 0.12524471D+00-0.42067416D-03
 0.00000000D+00 0.93056742D+00 0.80242793D-01 0.18294968D-02-0.18876833D-01
 0.17785506D-02 0.00000000D+00 0.00000000D+00-0.56374843D-02-0.68341821D-01
-0.29443497D-01-0.53704103D-01 0.00000000D+00 0.00000000D+00-0.93213802D-04
 0.00000000D+00 0.14296185D-01 0.11985328D-01 0.00000000D+00 0.13454912D-01
 0.54103848D-02 0.00000000D+00 0.10534924D-01-0.45734206D-02 0.00000000D+00
   17 Alpha MO OE= 0.53599135D+00
 0.00000000D+00 0.00000000D+00 0.00000000D+00 0.00000000D+00 0.45712955D-01
 0.00000000D+00 0.00000000D+00 0.14302812D+01 0.00000000D+00 0.00000000D+00
-0.13844142D+01 0.00000000D+00 0.00000000D+00 0.00000000D+00 0.00000000D+00
 0.00000000D+00 0.00000000D+00-0.68038507D-02 0.00000000D+00 0.00000000D+00
 0.00000000D+00 0.00000000D+00 0.00000000D+00-0.48608476D-01 0.00000000D+00
-0.36131488D+00 0.00000000D+00 0.00000000D+00-0.16404167D+00 0.00000000D+00
 0.00000000D+00-0.16147578D+00 0.00000000D+00 0.00000000D+00 0.00000000D+00
 0.00000000D+00 0.00000000D+00 0.00000000D+00 0.00000000D+00 0.34184727D-01
 0.00000000D+00 0.00000000D+00 0.37021913D+00 0.00000000D+00 0.00000000D+00
-0.46213497D-01 0.00000000D+00 0.00000000D+00 0.00000000D+00 0.00000000D+00
 0.00000000D+00-0.17467944D-02 0.57085672D-03 0.00000000D+00 0.00000000D+00
 0.00000000D+00 0.00000000D+00-0.36153320D-01 0.11446735D-01 0.00000000D+00
-0.95589162D-01 0.00000000D+00 0.00000000D+00-0.36891392D-01 0.00000000D+00
 0.00000000D+00-0.41559722D-01 0.00000000D+00 0.00000000D+00-0.29785818D-02
 0.00000000D+00 0.00000000D+00 0.00000000D+00 0.00000000D+00 0.34184727D-01
 0.00000000D+00 0.00000000D+00 0.37021913D+00 0.00000000D+00 0.00000000D+00
-0.46213497D-01 0.00000000D+00 0.00000000D+00 0.00000000D+00 0.00000000D+00
 0.00000000D+00 0.17467944D-02 0.57085672D-03 0.00000000D+00 0.00000000D+00
 0.00000000D+00 0.00000000D+00 0.36153320D-01 0.11446735D-01 0.00000000D+00
-0.95589162D-01 0.00000000D+00 0.00000000D+00-0.36891392D-01 0.00000000D+00
 0.00000000D+00-0.41559722D-01 0.00000000D+00 0.00000000D+00 0.29785818D-02
   18 Alpha MO OE= 0.56208209D+00
 0.72008483D-01-0.17461354D+00-0.30051275D+00 0.16139148D+01 0.00000000D+00
 0.00000000D+00 0.10863577D+00 0.00000000D+00 0.00000000D+00 0.11226626D+01
 0.00000000D+00 0.00000000D+00-0.12475553D+01-0.48747577D-01-0.34441103D-01
-0.54449583D-01 0.00000000D+00 0.00000000D+00 0.00000000D+00-0.40181950D+00
 0.83426153D-01-0.41073160D+00 0.00000000D+00 0.00000000D+00 0.00000000D+00
 0.00000000D+00 0.00000000D+00-0.26494987D+00 0.00000000D+00 0.00000000D+00
-0.11642170D+00 0.00000000D+00 0.00000000D+00-0.16529525D+00 0.00000000D+00
-0.16159123D-01 0.29200084D-01-0.17140923D-01-0.50440826D+00 0.00000000D+00
-0.11096370D+00 0.73486067D-01 0.00000000D+00 0.14473502D+00 0.28289336D+00
 0.00000000D+00-0.60614955D-01-0.13679211D+00-0.92039680D-04-0.16637120D-01
 0.18217485D-02 0.00000000D+00 0.00000000D+00 0.35369119D-02-0.59609632D-03
-0.15510742D+00-0.21811466D-01 0.00000000D+00 0.00000000D+00 0.52552387D-01
 0.00000000D+00-0.43870249D-01-0.61209249D-01 0.00000000D+00-0.35745099D-01
-0.26577785D-01 0.00000000D+00-0.29811369D-01-0.42227521D-01 0.00000000D+00
-0.16159123D-01 0.29200084D-01-0.17140923D-01-0.50440826D+00 0.00000000D+00
 0.11096370D+00 0.73486067D-01 0.00000000D+00-0.14473502D+00 0.28289336D+00
 0.00000000D+00 0.60614955D-01-0.13679211D+00-0.92039680D-04-0.16637120D-01
 0.18217485D-02 0.00000000D+00 0.00000000D+00-0.35369119D-02-0.59609632D-03
-0.15510742D+00-0.21811466D-01 0.00000000D+00 0.00000000D+00-0.52552387D-01
 0.00000000D+00 0.43870249D-01-0.61209249D-01 0.00000000D+00 0.35745099D-01
-0.26577785D-01 0.00000000D+00 0.29811369D-01-0.42227521D-01 0.00000000D+00
   19 Alpha MO OE= 0.64652171D+00
 0.00000000D+00 0.00000000D+00 0.00000000D+00 0.00000000D+00 0.00000000D+00
-0.13248656D+00 0.00000000D+00 0.00000000D+00-0.10863262D+01 0.00000000D+00
 0.00000000D+00 0.13091312D+01 0.00000000D+00 0.00000000D+00 0.00000000D+00
 0.00000000D+00 0.00000000D+00 0.00000000D+00 0.21522555D-01 0.00000000D+00
 0.00000000D+00 0.00000000D+00 0.00000000D+00 0.00000000D+00-0.17426977D+00
 0.00000000D+00 0.21040041D+00 0.00000000D+00 0.00000000D+00 0.84111403D-01
 0.00000000D+00 0.00000000D+00 0.10645823D+00 0.00000000D+00 0.00000000D+00
-0.34748303D-01 0.42595474D-01 0.99006099D-01-0.73142070D+00 0.00000000D+00
-0.71441033D-01-0.26964255D-02 0.00000000D+00 0.20300584D+00-0.43780745D+00
 0.00000000D+00-0.56700831D+00 0.50491164D+00 0.29158245D-01-0.35257471D-03
 0.19384690D-01 0.00000000D+00 0.00000000D+00 0.18250541D-01 0.10337689D+00
 0.86948929D-01 0.11587398D+00 0.00000000D+00 0.00000000D+00 0.59967853D-02
 0.00000000D+00-0.67634671D-01 0.11933521D+00 0.00000000D+00-0.33274778D-01
 0.52371445D-01 0.00000000D+00-0.36211136D-01 0.51770633D-01 0.00000000D+00
 0.34748303D-01-0.42595474D-01-0.99006099D-01 0.73142070D+00 0.00000000D+00
-0.71441033D-01 0.26964255D-02 0.00000000D+00 0.20300584D+00 0.43780745D+00
 0.00000000D+00-0.56700831D+00-0.50491164D+00-0.29158245D-01 0.35257471D-03
-0.19384690D-01 0.00000000D+00 0.00000000D+00 0.18250541D-01-0.10337689D+00
-0.86948929D-01-0.11587398D+00 0.00000000D+00 0.00000000D+00 0.59967853D-02
 0.00000000D+00-0.67634671D-01-0.11933521D+00 0.00000000D+00-0.33274778D-01
-0.52371445D-01 0.00000000D+00-0.36211136D-01-0.51770633D-01 0.00000000D+00
   20 Alpha MO OE= 0.68759289D+00
 0.63444627D-01 0.93922966D-01 0.25070205D+00 0.63197802D+00 0.00000000D+00
 0.00000000D+00 0.11163110D+00 0.00000000D+00 0.00000000D+00-0.47719935D+00
 0.00000000D+00 0.00000000D+00 0.23696525D+00 0.14157030D-01 0.55941146D-01
 0.21769834D-01 0.00000000D+00 0.00000000D+00 0.00000000D+00 0.73322470D-01
 0.87230199D+00 0.30912205D+00 0.00000000D+00 0.00000000D+00 0.00000000D+00
 0.00000000D+00 0.00000000D+00 0.14018823D+00 0.00000000D+00 0.00000000D+00
 0.67722775D-01 0.00000000D+00 0.00000000D+00 0.87479083D-02 0.00000000D+00
 0.63461119D-02 0.35311914D-01-0.18085847D+00-0.90326848D-02 0.00000000D+00
-0.16213675D+00 0.25596459D-01 0.00000000D+00-0.49591978D+00 0.11707216D+00
 0.00000000D+00 0.10407378D+01-0.60080740D+00-0.44906995D-01-0.24490749D-01
-0.36447886D-01 0.00000000D+00 0.00000000D+00-0.15203333D-01-0.20447063D+00
-0.37496903D+00-0.21600085D+00 0.00000000D+00 0.00000000D+00 0.91490837D-01
 0.00000000D+00 0.11175011D+00-0.37954456D-01 0.00000000D+00 0.45646610D-01
-0.16124511D-01 0.00000000D+00 0.48628997D-01-0.21613039D-01 0.00000000D+00
 0.63461119D-02 0.35311914D-01-0.18085847D+00-0.90326848D-02 0.00000000D+00
 0.16213675D+00 0.25596459D-01 0.00000000D+00 0.49591978D+00 0.11707216D+00
 0.00000000D+00-0.10407378D+01-0.60080740D+00-0.44906995D-01-0.24490749D-01
-0.36447886D-01 0.00000000D+00 0.00000000D+00 0.15203333D-01-0.20447063D+00
-0.37496903D+00-0.21600085D+00 0.00000000D+00 0.00000000D+00-0.91490837D-01
 0.00000000D+00-0.11175011D+00-0.37954456D-01 0.00000000D+00-0.45646610D-01
-0.16124511D-01 0.00000000D+00-0.48628997D-01-0.21613039D-01 0.00000000D+00
   21 Alpha MO OE= 0.74779960D+00
 0.00000000D+00 0.00000000D+00 0.00000000D+00 0.00000000D+00 0.00000000D+00
 0.00000000D+00 0.00000000D+00 0.00000000D+00 0.00000000D+00 0.00000000D+00
 0.00000000D+00 0.00000000D+00 0.00000000D+00 0.00000000D+00 0.00000000D+00
 0.00000000D+00 0.12002331D-01 0.00000000D+00 0.00000000D+00 0.00000000D+00
 0.00000000D+00 0.00000000D+00-0.25214733D+00 0.00000000D+00 0.00000000D+00
 0.00000000D+00 0.00000000D+00 0.00000000D+00 0.00000000D+00 0.00000000D+00
 0.00000000D+00 0.00000000D+00 0.00000000D+00 0.00000000D+00 0.18445492D-01
 0.00000000D+00 0.00000000D+00 0.00000000D+00 0.00000000D+00-0.65368765D-01
 0.00000000D+00 0.00000000D+00-0.99433408D+00 0.00000000D+00 0.00000000D+00
 0.10953841D+01 0.00000000D+00 0.00000000D+00 0.00000000D+00 0.00000000D+00
 0.00000000D+00 0.12020593D-01-0.64237574D-02 0.00000000D+00 0.00000000D+00
 0.00000000D+00 0.00000000D+00-0.11562989D-01 0.23775591D-01 0.00000000D+00
 0.24286136D+00 0.00000000D+00 0.00000000D+00 0.11594780D+00 0.00000000D+00
 0.00000000D+00 0.11111742D+00 0.00000000D+00 0.00000000D+00-0.52944453D-02
 0.00000000D+00 0.00000000D+00 0.00000000D+00 0.00000000D+00 0.65368765D-01
 0.00000000D+00 0.00000000D+00 0.99433408D+00 0.00000000D+00 0.00000000D+00
-0.10953841D+01 0.00000000D+00 0.00000000D+00 0.00000000D+00 0.00000000D+00
 0.00000000D+00 0.12020593D-01 0.64237574D-02 0.00000000D+00 0.00000000D+00
 0.00000000D+00 0.00000000D+00-0.11562989D-01-0.23775591D-01 0.00000000D+00
-0.24286136D+00 0.00000000D+00 0.00000000D+00-0.11594780D+00 0.00000000D+00
 0.00000000D+00-0.11111742D+00 0.00000000D+00 0.00000000D+00-0.52944453D-02
   22 Alpha MO OE= 0.76200791D+00
-0.23144997D-01 0.17137835D+00 0.18816107D+00-0.16872715D+01 0.00000000D+00
 0.00000000D+00-0.10518616D+00 0.00000000D+00 0.00000000D+00-0.43697117D+00
 0.00000000D+00 0.00000000D+00 0.17155397D+01 0.17852409D-01-0.27155260D-02
 0.35470875D-01 0.00000000D+00 0.00000000D+00 0.00000000D+00 0.15803569D+00
 0.29879379D+00 0.10341203D+00 0.00000000D+00 0.00000000D+00 0.00000000D+00
 0.00000000D+00 0.00000000D+00 0.69555006D-01 0.00000000D+00 0.00000000D+00
 0.23948604D-01 0.00000000D+00 0.00000000D+00 0.50307579D-01 0.00000000D+00
 0.13389731D-02-0.85226182D-01-0.73023387D-01 0.95047181D+00 0.00000000D+00
 0.79642160D-01 0.41512188D-01 0.00000000D+00 0.45750591D+00 0.82486491D+00
 0.00000000D+00-0.69211524D+00-0.11336741D+01-0.42247898D-02-0.81218139D-02
 0.40441911D-02 0.00000000D+00 0.00000000D+00-0.12606372D-01-0.11849149D+00
 0.79716899D-02-0.95541035D-01 0.00000000D+00 0.00000000D+00 0.34997167D-01
 0.00000000D+00-0.99698498D-01-0.20841831D+00 0.00000000D+00-0.33302541D-01
-0.93104023D-01 0.00000000D+00-0.33420215D-01-0.92002303D-01 0.00000000D+00
 0.13389731D-02-0.85226182D-01-0.73023387D-01 0.95047181D+00 0.00000000D+00
-0.79642160D-01 0.41512188D-01 0.00000000D+00-0.45750591D+00 0.82486491D+00
 0.00000000D+00 0.69211524D+00-0.11336741D+01-0.42247898D-02-0.81218139D-02
 0.40441911D-02 0.00000000D+00 0.00000000D+00 0.12606372D-01-0.11849149D+00
 0.79716899D-02-0.95541035D-01 0.00000000D+00 0.00000000D+00-0.34997167D-01
 0.00000000D+00 0.99698498D-01-0.20841831D+00 0.00000000D+00 0.33302541D-01
-0.93104023D-01 0.00000000D+00 0.33420215D-01-0.92002303D-01 0.00000000D+00
   23 Alpha MO OE= 0.78492284D+00
 0.00000000D+00 0.00000000D+00 0.00000000D+00 0.00000000D+00 0.00000000D+00
-0.25012282D+00 0.00000000D+00 0.00000000D+00 0.18338360D+00 0.00000000D+00
 0.00000000D+00-0.12259144D+01 0.00000000D+00 0.00000000D+00 0.00000000D+00
 0.00000000D+00 0.00000000D+00 0.00000000D+00-0.35910454D-01 0.00000000D+00
 0.00000000D+00 0.00000000D+00 0.00000000D+00 0.00000000D+00-0.45245232D+00
 0.00000000D+00 0.28012099D-02 0.00000000D+00 0.00000000D+00-0.39708086D-01
 0.00000000D+00 0.00000000D+00-0.44549777D-02 0.00000000D+00 0.00000000D+00
-0.17451740D-01 0.81601815D-02-0.22903082D+00 0.15409327D+01 0.00000000D+00
-0.14759052D+00 0.92549892D-01 0.00000000D+00-0.52384841D+00-0.17880172D+00
 0.00000000D+00 0.58723516D+00 0.55874348D+00-0.38819228D-01-0.22039453D-01
-0.45959624D-01 0.00000000D+00 0.00000000D+00 0.45363420D-02-0.25315077D+00
-0.45624029D+00-0.32029879D+00 0.00000000D+00 0.00000000D+00 0.12209393D+00
 0.00000000D+00 0.13291741D+00 0.79738473D-01 0.00000000D+00 0.41485558D-01
 0.36771517D-01 0.00000000D+00 0.49855381D-01 0.15669976D-01 0.00000000D+00
 0.17451740D-01-0.81601815D-02 0.22903082D+00-0.15409327D+01 0.00000000D+00
-0.14759052D+00-0.92549892D-01 0.00000000D+00-0.52384841D+00 0.17880172D+00
 0.00000000D+00 0.58723516D+00-0.55874348D+00 0.38819228D-01 0.22039453D-01
 0.45959624D-01 0.00000000D+00 0.00000000D+00 0.45363420D-02 0.25315077D+00
 0.45624029D+00 0.32029879D+00 0.00000000D+00 0.00000000D+00 0.12209393D+00
 0.00000000D+00 0.13291741D+00-0.79738473D-01 0.00000000D+00 0.41485558D-01
-0.36771517D-01 0.00000000D+00 0.49855381D-01-0.15669976D-01 0.00000000D+00
   24 Alpha MO OE= 0.81005652D+00
 0.00000000D+00 0.00000000D+00 0.00000000D+00 0.00000000D+00-0.93440066D-01
 0.00000000D+00 0.00000000D+00-0.52116896D+00 0.00000000D+00 0.00000000D+00
 0.15400112D+01 0.00000000D+00 0.00000000D+00 0.00000000D+00 0.00000000D+00
 0.00000000D+00 0.00000000D+00 0.76384880D-02 0.00000000D+00 0.00000000D+00
 0.00000000D+00 0.00000000D+00 0.00000000D+00 0.33463386D-01 0.00000000D+00
 0.78974330D-01 0.00000000D+00 0.00000000D+00 0.56999222D-01 0.00000000D+00
 0.00000000D+00 0.38582154D-01 0.00000000D+00 0.00000000D+00 0.00000000D+00
 0.00000000D+00 0.00000000D+00 0.00000000D+00 0.00000000D+00 0.60137542D-01
 0.00000000D+00 0.00000000D+00 0.10452821D+01 0.00000000D+00 0.00000000D+00
-0.13649405D+01 0.00000000D+00 0.00000000D+00 0.00000000D+00 0.00000000D+00
 0.00000000D+00-0.10594293D-01 0.31910300D-02 0.00000000D+00 0.00000000D+00
 0.00000000D+00 0.00000000D+00 0.39044375D-01 0.28388150D-01 0.00000000D+00
-0.25291406D+00 0.00000000D+00 0.00000000D+00-0.11941941D+00 0.00000000D+00
 0.00000000D+00-0.11317760D+00 0.00000000D+00 0.00000000D+00 0.24331776D-03
 0.00000000D+00 0.00000000D+00 0.00000000D+00 0.00000000D+00 0.60137542D-01
 0.00000000D+00 0.00000000D+00 0.10452821D+01 0.00000000D+00 0.00000000D+00
-0.13649405D+01 0.00000000D+00 0.00000000D+00 0.00000000D+00 0.00000000D+00
 0.00000000D+00 0.10594293D-01 0.31910300D-02 0.00000000D+00 0.00000000D+00
 0.00000000D+00 0.00000000D+00-0.39044375D-01 0.28388150D-01 0.00000000D+00
-0.25291406D+00 0.00000000D+00 0.00000000D+00-0.11941941D+00 0.00000000D+00
 0.00000000D+00-0.11317760D+00 0.00000000D+00 0.00000000D+00-0.24331776D-03
   25 Alpha MO OE= 0.82090351D+00
 0.00000000D+00 0.00000000D+00 0.00000000D+00 0.00000000D+00 0.00000000D+00
-0.19722320D+00 0.00000000D+00 0.00000000D+00-0.49709187D+00 0.00000000D+00
 0.00000000D+00 0.66602700D+00 0.00000000D+00 0.00000000D+00 0.00000000D+00
 0.00000000D+00 0.00000000D+00 0.00000000D+00-0.10527420D-01 0.00000000D+00
 0.00000000D+00 0.00000000D+00 0.00000000D+00 0.00000000D+00-0.62893938D-01
 0.00000000D+00 0.75401671D-01 0.00000000D+00 0.00000000D+00 0.24084382D-01
 0.00000000D+00 0.00000000D+00 0.21615278D-01 0.00000000D+00 0.00000000D+00
-0.56258820D-02 0.92458925D-02-0.18854366D+00 0.72099181D+00 0.00000000D+00
-0.88191230D-01 0.98733498D-01 0.00000000D+00 0.21341939D+00 0.89796839D+00
 0.00000000D+00-0.56149007D+00-0.83136265D+00-0.27401767D-01-0.45093247D-01
-0.25833877D-01 0.00000000D+00 0.00000000D+00 0.22247232D-02-0.20684724D+00
-0.32571203D+00-0.25436274D+00 0.00000000D+00 0.00000000D+00 0.33497087D-01
 0.00000000D+00-0.78617041D-01-0.20293860D+00 0.00000000D+00-0.39736950D-01
-0.89499659D-01 0.00000000D+00-0.34993443D-01-0.96886534D-01 0.00000000D+00
 0.56258820D-02-0.92458925D-02 0.18854366D+00-0.72099181D+00 0.00000000D+00
-0.88191230D-01-0.98733498D-01 0.00000000D+00 0.21341939D+00-0.89796839D+00
 0.00000000D+00-0.56149007D+00 0.83136265D+00 0.27401767D-01 0.45093247D-01
 0.25833877D-01 0.00000000D+00 0.00000000D+00 0.22247232D-02 0.20684724D+00
 0.32571203D+00 0.25436274D+00 0.00000000D+00 0.00000000D+00 0.33497087D-01
 0.00000000D+00-0.78617041D-01 0.20293860D+00 0.00000000D+00-0.39736950D-01
 0.89499659D-01 0.00000000D+00-0.34993443D-01 0.96886534D-01 0.00000000D+00
   26 Alpha MO OE= 0.98457416D+00
 0.33907596D-01-0.86758958D-01-0.28051847D+00 0.84781653D+01 0.00000000D+00
 0.00000000D+00 0.51822895D-01 0.00000000D+00 0.00000000D+00-0.35641670D+00
 0.00000000D+00 0.00000000D+00-0.18324951D+01-0.43491974D-01-0.36501669D-01
-0.38381289D-01 0.00000000D+00 0.00000000D+00 0.00000000D+00-0.14835092D+00
 0.30850161D+00-0.74874396D+00 0.00000000D+00 0.00000000D+00 0.00000000D+00
 0.00000000D+00 0.00000000D+00 0.10421516D+00 0.00000000D+00 0.00000000D+00
 0.46922885D-01 0.00000000D+00 0.00000000D+00-0.82960328D-01 0.00000000D+00
-0.31559714D-01 0.31997598D+00 0.84039909D+00-0.69321571D+01 0.00000000D+00
-0.37051018D-01 0.55377360D-02 0.00000000D+00-0.28438307D-01-0.10344292D+00
 0.00000000D+00 0.21129250D+01-0.68028283D+00 0.10690194D+00 0.11613789D+00
 0.11128534D+00 0.00000000D+00 0.00000000D+00-0.85783358D-02 0.11560816D+01
 0.82978680D+00 0.93501704D+00 0.00000000D+00 0.00000000D+00 0.37607744D-01
 0.00000000D+00 0.46733384D-01 0.14719202D-01 0.00000000D+00 0.24091672D-02
 0.95229946D-02 0.00000000D+00 0.17419565D-01-0.14968694D-01 0.00000000D+00
-0.31559714D-01 0.31997598D+00 0.84039909D+00-0.69321571D+01 0.00000000D+00
 0.37051018D-01 0.55377360D-02 0.00000000D+00 0.28438307D-01-0.10344292D+00
 0.00000000D+00-0.21129250D+01-0.68028283D+00 0.10690194D+00 0.11613789D+00
 0.11128534D+00 0.00000000D+00 0.00000000D+00 0.85783358D-02 0.11560816D+01
 0.82978680D+00 0.93501704D+00 0.00000000D+00 0.00000000D+00-0.37607744D-01
 0.00000000D+00-0.46733384D-01 0.14719202D-01 0.00000000D+00-0.24091672D-02
 0.95229946D-02 0.00000000D+00-0.17419565D-01-0.14968694D-01 0.00000000D+00
   27 Alpha MO OE= 0.11281173D+01
 0.00000000D+00 0.00000000D+00 0.00000000D+00 0.00000000D+00 0.41223860D-01
 0.00000000D+00 0.00000000D+00 0.19392481D+00 0.00000000D+00 0.00000000D+00
-0.61518465D+00 0.00000000D+00 0.00000000D+00 0.00000000D+00 0.00000000D+00
 0.00000000D+00 0.00000000D+00-0.78550434D-02 0.00000000D+00 0.00000000D+00
 0.00000000D+00 0.00000000D+00 0.00000000D+00 0.90808979D+00 0.00000000D+00
-0.23100886D-01 0.00000000D+00 0.00000000D+00-0.16912630D-01 0.00000000D+00
 0.00000000D+00-0.26444286D-01 0.00000000D+00 0.00000000D+00 0.00000000D+00
 0.00000000D+00 0.00000000D+00 0.00000000D+00 0.00000000D+00 0.10141894D-01
 0.00000000D+00 0.00000000D+00 0.24530709D-01 0.00000000D+00 0.00000000D+00
 0.39303500D+00 0.00000000D+00 0.00000000D+00 0.00000000D+00 0.00000000D+00
 0.00000000D+00 0.94214366D-02-0.34215430D-02 0.00000000D+00 0.00000000D+00
 0.00000000D+00 0.00000000D+00 0.10249668D+00 0.17381127D+00 0.00000000D+00
-0.73243780D-02 0.00000000D+00 0.00000000D+00 0.69227017D-02 0.00000000D+00
 0.00000000D+00 0.16573774D-02 0.00000000D+00 0.00000000D+00-0.93793350D-02
 0.00000000D+00 0.00000000D+00 0.00000000D+00 0.00000000D+00 0.10141894D-01
 0.00000000D+00 0.00000000D+00 0.24530709D-01 0.00000000D+00 0.00000000D+00
 0.39303500D+00 0.00000000D+00 0.00000000D+00 0.00000000D+00 0.00000000D+00
 0.00000000D+00-0.94214366D-02-0.34215430D-02 0.00000000D+00 0.00000000D+00
 0.00000000D+00 0.00000000D+00-0.10249668D+00 0.17381127D+00 0.00000000D+00
-0.73243780D-02 0.00000000D+00 0.00000000D+00 0.69227017D-02 0.00000000D+00
 0.00000000D+00 0.16573774D-02 0.00000000D+00 0.00000000D+00 0.93793350D-02
   28 Alpha MO OE= 0.11722525D+01
 0.00000000D+00 0.00000000D+00 0.00000000D+00 0.00000000D+00 0.00000000D+00
 0.20470813D+00 0.00000000D+00 0.00000000D+00-0.29693528D+00 0.00000000D+00
 0.00000000D+00-0.60298120D+01 0.00000000D+00 0.00000000D+00 0.00000000D+00
 0.00000000D+00 0.00000000D+00 0.00000000D+00 0.13272008D-01 0.00000000D+00
 0.00000000D+00 0.00000000D+00 0.00000000D+00 0.00000000D+00 0.38658298D+00
 0.00000000D+00-0.56730656D-01 0.00000000D+00 0.00000000D+00 0.83251457D-01
 0.00000000D+00 0.00000000D+00 0.16234116D-01 0.00000000D+00 0.00000000D+00
 0.32519061D-01-0.58175616D+00-0.10999043D+01 0.92329996D+01 0.00000000D+00
 0.46635197D-01-0.43647749D-01 0.00000000D+00 0.75817871D-01-0.31645561D+00
 0.00000000D+00-0.21819881D+01 0.16898537D+01-0.12185517D+00-0.13558278D+00
-0.12318569D+00 0.00000000D+00 0.00000000D+00 0.91328573D-02-0.12428549D+01
-0.11545395D+01-0.13373983D+01 0.00000000D+00 0.00000000D+00-0.10706109D+00
 0.00000000D+00-0.41818290D-01 0.60607151D-01 0.00000000D+00 0.91829343D-03
 0.25700702D-01 0.00000000D+00-0.12594408D-01 0.55699664D-01 0.00000000D+00
-0.32519061D-01 0.58175616D+00 0.10999043D+01-0.92329996D+01 0.00000000D+00
 0.46635197D-01 0.43647749D-01 0.00000000D+00 0.75817871D-01 0.31645561D+00
 0.00000000D+00-0.21819881D+01-0.16898537D+01 0.12185517D+00 0.13558278D+00
 0.12318569D+00 0.00000000D+00 0.00000000D+00 0.91328573D-02 0.12428549D+01
 0.11545395D+01 0.13373983D+01 0.00000000D+00 0.00000000D+00-0.10706109D+00
 0.00000000D+00-0.41818290D-01-0.60607151D-01 0.00000000D+00 0.91829343D-03
-0.25700702D-01 0.00000000D+00-0.12594408D-01-0.55699664D-01 0.00000000D+00
   29 Alpha MO OE= 0.12666314D+01
 0.21785687D-01-0.99602898D-01-0.27553288D+00 0.79800574D+01 0.00000000D+00
 0.00000000D+00 0.67593947D-01 0.00000000D+00 0.00000000D+00-0.80994987D-01
 0.00000000D+00 0.00000000D+00-0.25394348D+01-0.33031979D-01-0.48335359D-01
-0.32535847D-01 0.00000000D+00 0.00000000D+00 0.00000000D+00-0.11097960D+01
 0.25652121D+00 0.39393009D+00 0.00000000D+00 0.00000000D+00 0.00000000D+00
 0.00000000D+00 0.00000000D+00 0.25396662D-01 0.00000000D+00 0.00000000D+00
 0.29112852D-01 0.00000000D+00 0.00000000D+00-0.10758324D+00 0.00000000D+00
-0.18626805D-01 0.27802362D+00 0.63370645D+00-0.61273846D+01 0.00000000D+00
-0.71773732D-02 0.41982662D-01 0.00000000D+00 0.18304491D+00-0.11718610D+00
 0.00000000D+00 0.20072878D+01-0.15273281D+00 0.74972726D-01 0.84428508D-01
 0.72760122D-01 0.00000000D+00 0.00000000D+00 0.47915238D-02 0.65623870D+00
 0.67633064D+00 0.78411852D+00 0.00000000D+00 0.00000000D+00 0.22348305D+00
 0.00000000D+00 0.29296832D-01 0.33014095D-01 0.00000000D+00-0.77342253D-02
 0.11692940D-01 0.00000000D+00-0.80994646D-02-0.96093500D-02 0.00000000D+00
-0.18626805D-01 0.27802362D+00 0.63370645D+00-0.61273846D+01 0.00000000D+00
 0.71773732D-02 0.41982662D-01 0.00000000D+00-0.18304491D+00-0.11718610D+00
 0.00000000D+00-0.20072878D+01-0.15273281D+00 0.74972726D-01 0.84428508D-01
 0.72760122D-01 0.00000000D+00 0.00000000D+00-0.47915238D-02 0.65623870D+00
 0.67633064D+00 0.78411852D+00 0.00000000D+00 0.00000000D+00-0.22348305D+00
 0.00000000D+00-0.29296832D-01 0.33014095D-01 0.00000000D+00 0.77342253D-02
 0.11692940D-01 0.00000000D+00 0.80994646D-02-0.96093500D-02 0.00000000D+00
   30 Alpha MO OE= 0.13016562D+01
 0.00000000D+00 0.00000000D+00 0.00000000D+00 0.00000000D+00 0.00000000D+00
 0.00000000D+00 0.00000000D+00 0.00000000D+00 0.00000000D+00 0.00000000D+00
 0.00000000D+00 0.00000000D+00 0.00000000D+00 0.00000000D+00 0.00000000D+00
 0.00000000D+00 0.96537106D-02 0.00000000D+00 0.00000000D+00 0.00000000D+00
 0.00000000D+00 0.00000000D+00 0.93919006D+00 0.00000000D+00 0.00000000D+00
 0.00000000D+00 0.00000000D+00 0.00000000D+00 0.00000000D+00 0.00000000D+00
 0.00000000D+00 0.00000000D+00 0.00000000D+00 0.00000000D+00 0.33687947D-02
 0.00000000D+00 0.00000000D+00 0.00000000D+00 0.00000000D+00-0.69686399D-01
 0.00000000D+00 0.00000000D+00-0.42214599D+00 0.00000000D+00 0.00000000D+00
-0.79095984D-01 0.00000000D+00 0.00000000D+00 0.00000000D+00 0.00000000D+00
 0.00000000D+00-0.18021276D-01 0.62233848D-02 0.00000000D+00 0.00000000D+00
 0.00000000D+00 0.00000000D+00-0.65216917D-01 0.20804019D+00 0.00000000D+00
 0.81836358D-01 0.00000000D+00 0.00000000D+00 0.14857652D-01 0.00000000D+00
 0.00000000D+00 0.36222883D-01 0.00000000D+00 0.00000000D+00 0.61597592D-02
 0.00000000D+00 0.00000000D+00 0.00000000D+00 0.00000000D+00 0.69686399D-01
 0.00000000D+00 0.00000000D+00 0.42214599D+00 0.00000000D+00 0.00000000D+00
 0.79095984D-01 0.00000000D+00 0.00000000D+00 0.00000000D+00 0.00000000D+00
 0.00000000D+00-0.18021276D-01-0.62233848D-02 0.00000000D+00 0.00000000D+00
 0.00000000D+00 0.00000000D+00-0.65216917D-01-0.20804019D+00 0.00000000D+00
-0.81836358D-01 0.00000000D+00 0.00000000D+00-0.14857652D-01 0.00000000D+00
 0.00000000D+00-0.36222883D-01 0.00000000D+00 0.00000000D+00 0.61597592D-02
   31 Alpha MO OE= 0.15700423D+01
 0.00000000D+00 0.00000000D+00 0.00000000D+00 0.00000000D+00 0.00000000D+00
 0.21953899D+00 0.00000000D+00 0.00000000D+00 0.28502133D+00 0.00000000D+00
 0.00000000D+00 0.22146261D+01 0.00000000D+00 0.00000000D+00 0.00000000D+00
 0.00000000D+00 0.00000000D+00 0.00000000D+00 0.67695968D-02 0.00000000D+00
 0.00000000D+00 0.00000000D+00 0.00000000D+00 0.00000000D+00-0.11174389D+01
 0.00000000D+00 0.17818790D+00 0.00000000D+00 0.00000000D+00 0.50965581D-01
 0.00000000D+00 0.00000000D+00 0.60445157D-01 0.00000000D+00 0.00000000D+00
-0.15819961D-02-0.20115864D-01-0.21149732D-01-0.19125713D+01 0.00000000D+00
 0.36104602D-01 0.16615473D-01 0.00000000D+00 0.81371175D+00-0.24519248D-02
 0.00000000D+00 0.24732841D+00-0.35610062D+00-0.87620450D-02 0.11432283D-01
-0.77405760D-02 0.00000000D+00 0.00000000D+00 0.48071227D-02 0.34992261D+00
-0.15467451D+00-0.41607298D+00 0.00000000D+00 0.00000000D+00-0.98601675D-01
 0.00000000D+00-0.92982092D-01-0.12140613D-01 0.00000000D+00-0.66887769D-01
-0.47527880D-03 0.00000000D+00-0.61598934D-01-0.57376623D-02 0.00000000D+00
 0.15819961D-02 0.20115864D-01 0.21149732D-01 0.19125713D+01 0.00000000D+00
 0.36104602D-01-0.16615473D-01 0.00000000D+00 0.81371175D+00 0.24519248D-02
 0.00000000D+00 0.24732841D+00 0.35610062D+00 0.87620450D-02-0.11432283D-01
 0.77405760D-02 0.00000000D+00 0.00000000D+00 0.48071227D-02-0.34992261D+00
 0.15467451D+00 0.41607298D+00 0.00000000D+00 0.00000000D+00-0.98601675D-01
 0.00000000D+00-0.92982092D-01 0.12140613D-01 0.00000000D+00-0.66887769D-01
 0.47527880D-03 0.00000000D+00-0.61598934D-01 0.57376623D-02 0.00000000D+00
   32 Alpha MO OE= 0.16208643D+01
-0.94250336D-01 0.12553675D+01-0.87771795D+00 0.47513723D+01 0.00000000D+00
 0.00000000D+00-0.70621548D-01 0.00000000D+00 0.00000000D+00 0.22020214D+00
 0.00000000D+00 0.00000000D+00-0.79031596D+00-0.26970898D+00-0.24882680D+00
-0.27424254D+00 0.00000000D+00 0.00000000D+00 0.00000000D+00-0.21883805D+01
-0.12201811D+01-0.20793473D+01 0.00000000D+00 0.00000000D+00 0.00000000D+00
 0.00000000D+00 0.00000000D+00-0.67902330D-01 0.00000000D+00 0.00000000D+00
-0.19736965D-01 0.00000000D+00 0.00000000D+00-0.29959221D-01 0.00000000D+00
 0.48067575D-02 0.13262405D+00 0.92519440D-01-0.12183811D+01 0.00000000D+00
 0.35595635D-01-0.59480406D-01 0.00000000D+00 0.51827856D-01-0.21057865D+00
 0.00000000D+00 0.10134915D+00 0.20433493D+00-0.35730075D-02-0.84815882D-02
-0.52320935D-03 0.00000000D+00 0.00000000D+00-0.57058338D-02-0.16082179D+00
 0.15351932D+00 0.20478812D+00 0.00000000D+00 0.00000000D+00-0.15364337D+00
 0.00000000D+00 0.11482197D-02 0.25064309D-01 0.00000000D+00 0.23497705D-02
 0.99673544D-02 0.00000000D+00 0.35522683D-02 0.39749700D-02 0.00000000D+00
 0.48067575D-02 0.13262405D+00 0.92519440D-01-0.12183811D+01 0.00000000D+00
-0.35595635D-01-0.59480406D-01 0.00000000D+00-0.51827856D-01-0.21057865D+00
 0.00000000D+00-0.10134915D+00 0.20433493D+00-0.35730075D-02-0.84815882D-02
-0.52320935D-03 0.00000000D+00 0.00000000D+00 0.57058338D-02-0.16082179D+00
 0.15351932D+00 0.20478812D+00 0.00000000D+00 0.00000000D+00 0.15364337D+00
 0.00000000D+00-0.11482197D-02 0.25064309D-01 0.00000000D+00-0.23497705D-02
 0.99673544D-02 0.00000000D+00-0.35522683D-02 0.39749700D-02 0.00000000D+00
   33 Alpha MO OE= 0.17104391D+01
 0.00000000D+00 0.00000000D+00 0.00000000D+00 0.00000000D+00 0.00000000D+00
 0.00000000D+00 0.00000000D+00 0.00000000D+00 0.00000000D+00 0.00000000D+00
 0.00000000D+00 0.00000000D+00 0.00000000D+00 0.00000000D+00 0.00000000D+00
 0.00000000D+00-0.29106869D-01 0.00000000D+00 0.00000000D+00 0.00000000D+00
 0.00000000D+00 0.00000000D+00-0.24424155D-01 0.00000000D+00 0.00000000D+00
 0.00000000D+00 0.00000000D+00 0.00000000D+00 0.00000000D+00 0.00000000D+00
 0.00000000D+00 0.00000000D+00 0.00000000D+00 0.00000000D+00 0.14122679D-01
 0.00000000D+00 0.00000000D+00 0.00000000D+00 0.00000000D+00 0.55309637D-01
 0.00000000D+00 0.00000000D+00 0.58354942D-02 0.00000000D+00 0.00000000D+00
-0.86281210D-01 0.00000000D+00 0.00000000D+00 0.00000000D+00 0.00000000D+00
 0.00000000D+00-0.21675410D-02-0.70590529D-02 0.00000000D+00 0.00000000D+00
 0.00000000D+00 0.00000000D+00 0.49574050D+00 0.50813611D+00 0.00000000D+00
 0.25363956D-01 0.00000000D+00 0.00000000D+00-0.60362024D-03 0.00000000D+00
 0.00000000D+00 0.16527040D-01 0.00000000D+00 0.00000000D+00-0.18452158D-02
 0.00000000D+00 0.00000000D+00 0.00000000D+00 0.00000000D+00-0.55309637D-01
 0.00000000D+00 0.00000000D+00-0.58354942D-02 0.00000000D+00 0.00000000D+00
 0.86281210D-01 0.00000000D+00 0.00000000D+00 0.00000000D+00 0.00000000D+00
 0.00000000D+00-0.21675410D-02 0.70590529D-02 0.00000000D+00 0.00000000D+00
 0.00000000D+00 0.00000000D+00 0.49574050D+00-0.50813611D+00 0.00000000D+00
-0.25363956D-01 0.00000000D+00 0.00000000D+00 0.60362024D-03 0.00000000D+00
 0.00000000D+00-0.16527040D-01 0.00000000D+00 0.00000000D+00-0.18452158D-02
   34 Alpha MO OE= 0.17928030D+01
 0.47998383D-01-0.67412133D+00 0.56376011D+00 0.22432673D-01 0.00000000D+00
 0.00000000D+00-0.19801145D+00 0.00000000D+00 0.00000000D+00-0.19864297D+00
 0.00000000D+00 0.00000000D+00-0.64064411D+00 0.17006367D+00 0.13445029D+00
 0.15296266D+00 0.00000000D+00 0.00000000D+00 0.00000000D+00 0.11287597D+01
 0.21622163D+01 0.80277920D+00 0.00000000D+00 0.00000000D+00 0.00000000D+00
 0.00000000D+00 0.00000000D+00-0.11663218D+00 0.00000000D+00 0.00000000D+00
-0.13398793D-01 0.00000000D+00 0.00000000D+00-0.11466095D+00 0.00000000D+00
-0.64998395D-02-0.15919936D+00-0.99674770D-01-0.11237204D+01 0.00000000D+00
 0.10880188D-03-0.39242093D-01 0.00000000D+00 0.51668595D+00-0.40484607D+00
 0.00000000D+00 0.60707754D+00-0.10213088D+00 0.57992816D-02 0.28443301D-03
 0.16488901D-02 0.00000000D+00 0.00000000D+00-0.76671892D-02-0.45440459D+00
-0.34066111D+00 0.42720234D+00 0.00000000D+00 0.00000000D+00 0.18735541D+00
 0.00000000D+00-0.41069187D-01 0.46583557D-01 0.00000000D+00-0.25762064D-01
 0.21961205D-01 0.00000000D+00-0.15531709D-01-0.12358825D-02 0.00000000D+00
-0.64998395D-02-0.15919936D+00-0.99674770D-01-0.11237204D+01 0.00000000D+00
-0.10880188D-03-0.39242093D-01 0.00000000D+00-0.51668595D+00-0.40484607D+00
 0.00000000D+00-0.60707754D+00-0.10213088D+00 0.57992816D-02 0.28443301D-03
 0.16488901D-02 0.00000000D+00 0.00000000D+00 0.76671892D-02-0.45440459D+00
-0.34066111D+00 0.42720234D+00 0.00000000D+00 0.00000000D+00-0.18735541D+00
 0.00000000D+00 0.41069187D-01 0.46583557D-01 0.00000000D+00 0.25762064D-01
 0.21961205D-01 0.00000000D+00 0.15531709D-01-0.12358825D-02 0.00000000D+00
   35 Alpha MO OE= 0.18269360D+01
 0.00000000D+00 0.00000000D+00 0.00000000D+00 0.00000000D+00-0.82065302D-01
 0.00000000D+00 0.00000000D+00-0.92984336D-01 0.00000000D+00 0.00000000D+00
-0.10113472D+00 0.00000000D+00 0.00000000D+00 0.00000000D+00 0.00000000D+00
 0.00000000D+00 0.00000000D+00-0.13786199D-01 0.00000000D+00 0.00000000D+00
 0.00000000D+00 0.00000000D+00 0.00000000D+00-0.40908497D+00 0.00000000D+00
-0.16273582D-02 0.00000000D+00 0.00000000D+00-0.90926526D-02 0.00000000D+00
 0.00000000D+00-0.47279721D-01 0.00000000D+00 0.00000000D+00 0.00000000D+00
 0.00000000D+00 0.00000000D+00 0.00000000D+00 0.00000000D+00-0.37723219D-01
 0.00000000D+00 0.00000000D+00-0.58396626D-01 0.00000000D+00 0.00000000D+00
 0.10406158D+00 0.00000000D+00 0.00000000D+00 0.00000000D+00 0.00000000D+00
 0.00000000D+00-0.47939887D-02-0.67774431D-02 0.00000000D+00 0.00000000D+00
 0.00000000D+00 0.00000000D+00-0.90121883D-02 0.71252112D+00 0.00000000D+00
-0.32440248D-02 0.00000000D+00 0.00000000D+00-0.28221379D-02 0.00000000D+00
 0.00000000D+00-0.10932643D-02 0.00000000D+00 0.00000000D+00-0.23558841D-02
 0.00000000D+00 0.00000000D+00 0.00000000D+00 0.00000000D+00-0.37723219D-01
 0.00000000D+00 0.00000000D+00-0.58396626D-01 0.00000000D+00 0.00000000D+00
 0.10406158D+00 0.00000000D+00 0.00000000D+00 0.00000000D+00 0.00000000D+00
 0.00000000D+00 0.47939887D-02-0.67774431D-02 0.00000000D+00 0.00000000D+00
 0.00000000D+00 0.00000000D+00 0.90121883D-02 0.71252112D+00 0.00000000D+00
-0.32440248D-02 0.00000000D+00 0.00000000D+00-0.28221379D-02 0.00000000D+00
 0.00000000D+00-0.10932643D-02 0.00000000D+00 0.00000000D+00 0.23558841D-02
   36 Alpha MO OE= 0.18445286D+01
 0.00000000D+00 0.00000000D+00 0.00000000D+00 0.00000000D+00 0.00000000D+00
 0.37549718D+00 0.00000000D+00 0.00000000D+00-0.33063026D+00 0.00000000D+00
 0.00000000D+00 0.99964681D+00 0.00000000D+00 0.00000000D+00 0.00000000D+00
 0.00000000D+00 0.00000000D+00 0.00000000D+00-0.26452609D-01 0.00000000D+00
 0.00000000D+00 0.00000000D+00 0.00000000D+00 0.00000000D+00-0.71271447D+00
 0.00000000D+00 0.37552002D+00 0.00000000D+00 0.00000000D+00 0.98230341D-01
 0.00000000D+00 0.00000000D+00 0.13296071D+00 0.00000000D+00 0.00000000D+00
 0.10625828D-01-0.15100847D+00-0.17912019D+00-0.76044198D-01 0.00000000D+00
 0.82700610D-01 0.44668515D-01 0.00000000D+00 0.55804643D+00-0.19354823D-01
 0.00000000D+00-0.26986860D+00-0.16830176D+00-0.16876707D-01-0.56770785D-02
-0.29252308D-01 0.00000000D+00 0.00000000D+00 0.17553599D-02-0.62184727D+00
-0.13110283D-01-0.22421262D-01 0.00000000D+00 0.00000000D+00 0.43671872D+00
 0.00000000D+00-0.51428315D-01 0.15177062D-01 0.00000000D+00-0.30153099D-01
 0.55643401D-02 0.00000000D+00-0.27765867D-01-0.26213214D-02 0.00000000D+00
-0.10625828D-01 0.15100847D+00 0.17912019D+00 0.76044198D-01 0.00000000D+00
 0.82700610D-01-0.44668515D-01 0.00000000D+00 0.55804643D+00 0.19354823D-01
 0.00000000D+00-0.26986860D+00 0.16830176D+00 0.16876707D-01 0.56770785D-02
 0.29252308D-01 0.00000000D+00 0.00000000D+00 0.17553599D-02 0.62184727D+00
 0.13110283D-01 0.22421262D-01 0.00000000D+00 0.00000000D+00 0.43671872D+00
 0.00000000D+00-0.51428315D-01-0.15177062D-01 0.00000000D+00-0.30153099D-01
-0.55643401D-02 0.00000000D+00-0.27765867D-01 0.26213214D-02 0.00000000D+00
   37 Alpha MO OE= 0.20189259D+01
 0.16086371D-01-0.23173275D+00 0.34367684D+00 0.14314087D+01 0.00000000D+00
 0.00000000D+00-0.48841455D+00 0.00000000D+00 0.00000000D+00 0.55814149D+00
 0.00000000D+00 0.00000000D+00-0.13010403D+01 0.82100357D-01 0.66914877D-01
 0.86156686D-01 0.00000000D+00 0.00000000D+00 0.00000000D+00-0.32057037D+00
 0.19930093D+01 0.98279281D+00 0.00000000D+00 0.00000000D+00 0.00000000D+00
 0.00000000D+00 0.00000000D+00-0.39537348D+00 0.00000000D+00 0.00000000D+00
-0.20416687D+00 0.00000000D+00 0.00000000D+00-0.29627850D+00 0.00000000D+00
-0.12907124D-02-0.18308822D+00-0.16364459D+00-0.13540117D+01 0.00000000D+00
 0.63142008D-01-0.54040302D-01 0.00000000D+00 0.62758035D+00-0.40345485D+00
[...]
 0.00000000D+00-0.28854365D+00-0.13779177D-01 0.00000000D+00 0.00000000D+00
 0.00000000D+00 0.00000000D+00 0.75603692D+00 0.24720539D+00 0.00000000D+00
-0.22782910D+01 0.00000000D+00 0.00000000D+00-0.23393482D+00 0.00000000D+00
 0.00000000D+00-0.80217465D+00 0.00000000D+00 0.00000000D+00 0.42595924D+00
   94 Alpha MO OE= 0.76107882D+01
 0.00000000D+00 0.00000000D+00 0.00000000D+00 0.00000000D+00 0.00000000D+00
 0.00000000D+00 0.00000000D+00 0.00000000D+00 0.00000000D+00 0.00000000D+00
 0.00000000D+00 0.00000000D+00 0.00000000D+00 0.00000000D+00 0.00000000D+00
 0.00000000D+00-0.20434486D+00 0.00000000D+00 0.00000000D+00 0.00000000D+00
 0.00000000D+00 0.00000000D+00-0.11993486D+01 0.00000000D+00 0.00000000D+00
 0.00000000D+00 0.00000000D+00 0.00000000D+00 0.00000000D+00 0.00000000D+00
 0.00000000D+00 0.00000000D+00 0.00000000D+00 0.00000000D+00 0.52190125D+00
 0.00000000D+00 0.00000000D+00 0.00000000D+00 0.00000000D+00-0.46245204D+00
 0.00000000D+00 0.00000000D+00 0.39862635D+01 0.00000000D+00 0.00000000D+00
-0.24703167D+00 0.00000000D+00 0.00000000D+00 0.00000000D+00 0.00000000D+00
 0.00000000D+00 0.35055615D+00-0.28990423D+00 0.00000000D+00 0.00000000D+00
 0.00000000D+00 0.00000000D+00-0.75535714D+00 0.43603566D+00 0.00000000D+00
-0.23784193D+01 0.00000000D+00 0.00000000D+00-0.39421741D+00 0.00000000D+00
 0.00000000D+00-0.98533958D+00 0.00000000D+00 0.00000000D+00-0.32576759D+00
 0.00000000D+00 0.00000000D+00 0.00000000D+00 0.00000000D+00 0.46245204D+00
 0.00000000D+00 0.00000000D+00-0.39862635D+01 0.00000000D+00 0.00000000D+00
 0.24703167D+00 0.00000000D+00 0.00000000D+00 0.00000000D+00 0.00000000D+00
 0.00000000D+00 0.35055615D+00 0.28990423D+00 0.00000000D+00 0.00000000D+00
 0.00000000D+00 0.00000000D+00-0.75535714D+00-0.43603566D+00 0.00000000D+00
 0.23784193D+01 0.00000000D+00 0.00000000D+00 0.39421741D+00 0.00000000D+00
 0.00000000D+00 0.98533958D+00 0.00000000D+00 0.00000000D+00-0.32576759D+00
   95 Alpha MO OE= 0.79568230D+01
 0.00000000D+00 0.00000000D+00 0.00000000D+00 0.00000000D+00 0.00000000D+00
-0.15673415D+01 0.00000000D+00 0.00000000D+00 0.69113353D+01 0.00000000D+00
 0.00000000D+00-0.82427434D+00 0.00000000D+00 0.00000000D+00 0.00000000D+00
 0.00000000D+00 0.00000000D+00 0.00000000D+00 0.57679986D+00 0.00000000D+00
 0.00000000D+00 0.00000000D+00 0.00000000D+00 0.00000000D+00-0.55655836D+00
 0.00000000D+00-0.23668636D+01 0.00000000D+00 0.00000000D+00-0.19382397D+01
 0.00000000D+00 0.00000000D+00-0.20942222D+01 0.00000000D+00 0.00000000D+00
 0.65986853D-01 0.14441693D+00-0.67421459D+00 0.11115879D+01 0.00000000D+00
 0.21430476D+00 0.27605473D-01 0.00000000D+00-0.67726120D+00-0.15191968D+00
 0.00000000D+00-0.35584271D-01 0.95266422D-01 0.69197105D-01-0.31296268D+00
-0.12489587D+00 0.00000000D+00 0.00000000D+00 0.21304961D+00-0.75135918D+00
 0.49368711D-01-0.75147120D+00 0.00000000D+00 0.00000000D+00-0.82101066D-01
 0.00000000D+00-0.78143419D-01-0.33938019D+00 0.00000000D+00 0.57472696D+00
-0.78545895D-01 0.00000000D+00 0.72490554D+00 0.20947354D+00 0.00000000D+00
-0.65986853D-01-0.14441693D+00 0.67421459D+00-0.11115879D+01 0.00000000D+00
 0.21430476D+00-0.27605473D-01 0.00000000D+00-0.67726120D+00 0.15191968D+00
 0.00000000D+00-0.35584271D-01-0.95266422D-01-0.69197105D-01 0.31296268D+00
 0.12489587D+00 0.00000000D+00 0.00000000D+00 0.21304961D+00 0.75135918D+00
-0.49368711D-01 0.75147120D+00 0.00000000D+00 0.00000000D+00-0.82101066D-01
 0.00000000D+00-0.78143419D-01 0.33938019D+00 0.00000000D+00 0.57472696D+00
 0.78545895D-01 0.00000000D+00 0.72490554D+00-0.20947354D+00 0.00000000D+00
   96 Alpha MO OE= 0.81423196D+01
 0.58801917D-03-0.11859453D-01-0.13171577D+00 0.52712141D+00 0.00000000D+00
 0.00000000D+00 0.43484510D+00 0.00000000D+00 0.00000000D+00-0.27367585D+01
 0.00000000D+00 0.00000000D+00 0.81414770D-01-0.40679440D-01 0.26947907D-01
 0.68211477D-03 0.00000000D+00 0.00000000D+00 0.00000000D+00-0.35331403D-01
-0.16858140D+01 0.91770268D+00 0.00000000D+00 0.00000000D+00 0.00000000D+00
 0.00000000D+00 0.00000000D+00 0.95748149D+00 0.00000000D+00 0.00000000D+00
 0.65320692D+00 0.00000000D+00 0.00000000D+00 0.28306198D+00 0.00000000D+00
-0.71940230D-01-0.41360247D+00 0.43396809D+00-0.65559944D+00 0.00000000D+00
-0.18127168D+00-0.56109027D+00 0.00000000D+00 0.14125559D+01 0.45062702D+01
 0.00000000D+00 0.36328507D-01-0.32172951D+00 0.76746766D-01 0.49351136D+00
-0.17935437D+00 0.00000000D+00 0.00000000D+00 0.36826871D+00 0.45056959D+00
-0.23439694D+00 0.97058360D+00 0.00000000D+00 0.00000000D+00-0.74365383D+00
 0.00000000D+00-0.47570528D+00-0.23308495D+01 0.00000000D+00-0.48754904D+00
-0.10974128D+01 0.00000000D+00-0.77399952D+00-0.76173089D+00 0.00000000D+00
-0.71940230D-01-0.41360247D+00 0.43396809D+00-0.65559944D+00 0.00000000D+00
 0.18127168D+00-0.56109027D+00 0.00000000D+00-0.14125559D+01 0.45062702D+01
 0.00000000D+00-0.36328507D-01-0.32172951D+00 0.76746766D-01 0.49351136D+00
-0.17935437D+00 0.00000000D+00 0.00000000D+00-0.36826871D+00 0.45056959D+00
-0.23439694D+00 0.97058360D+00 0.00000000D+00 0.00000000D+00 0.74365383D+00
 0.00000000D+00 0.47570528D+00-0.23308495D+01 0.00000000D+00 0.48754904D+00
-0.10974128D+01 0.00000000D+00 0.77399952D+00-0.76173089D+00 0.00000000D+00
   97 Alpha MO OE= 0.84641519D+01
 0.00000000D+00 0.00000000D+00 0.00000000D+00 0.00000000D+00 0.00000000D+00
 0.76658045D+00 0.00000000D+00 0.00000000D+00-0.30709187D+01 0.00000000D+00
 0.00000000D+00-0.23922888D+00 0.00000000D+00 0.00000000D+00 0.00000000D+00
 0.00000000D+00 0.00000000D+00 0.00000000D+00-0.72320279D+00 0.00000000D+00
 0.00000000D+00 0.00000000D+00 0.00000000D+00 0.00000000D+00 0.65294577D+00
 0.00000000D+00 0.40007394D+01 0.00000000D+00 0.00000000D+00 0.97624859D+00
 0.00000000D+00 0.00000000D+00 0.47330998D+00 0.00000000D+00 0.00000000D+00
 0.20104088D+00 0.12539442D+01-0.60016133D+00 0.12588068D+01 0.00000000D+00
-0.25903464D+00 0.30548328D+00 0.00000000D+00 0.12904476D+01-0.14135306D+01
 0.00000000D+00-0.27801520D+00 0.12734962D+00-0.11407133D+00-0.51027315D+00
-0.20143971D+00 0.00000000D+00 0.00000000D+00 0.34659557D+00-0.42380109D+00
-0.10831088D+01-0.98528364D+00 0.00000000D+00 0.00000000D+00 0.72661429D+00
 0.00000000D+00-0.21151960D+00 0.61323058D+00 0.00000000D+00-0.50646733D+00
 0.44309419D+00 0.00000000D+00 0.30672690D+00-0.62916980D+00 0.00000000D+00
-0.20104088D+00-0.12539442D+01 0.60016133D+00-0.12588068D+01 0.00000000D+00
-0.25903464D+00-0.30548328D+00 0.00000000D+00 0.12904476D+01 0.14135306D+01
 0.00000000D+00-0.27801520D+00-0.12734962D+00 0.11407133D+00 0.51027315D+00
 0.20143971D+00 0.00000000D+00 0.00000000D+00 0.34659557D+00 0.42380109D+00
 0.10831088D+01 0.98528364D+00 0.00000000D+00 0.00000000D+00 0.72661429D+00
 0.00000000D+00-0.21151960D+00-0.61323058D+00 0.00000000D+00-0.50646733D+00
-0.44309419D+00 0.00000000D+00 0.30672690D+00 0.62916980D+00 0.00000000D+00
   98 Alpha MO OE= 0.89522879D+01
 0.70041795D+00 0.54963768D+01-0.25979223D+01 0.60881170D+00 0.00000000D+00
 0.00000000D+00-0.24432226D+00 0.00000000D+00 0.00000000D+00 0.22544315D+01
 0.00000000D+00 0.00000000D+00 0.16143864D+00-0.14687210D+01-0.80355936D+00
-0.12986287D+01 0.00000000D+00 0.00000000D+00 0.00000000D+00-0.17909681D+01
-0.34397719D+01-0.19527741D+01 0.00000000D+00 0.00000000D+00 0.00000000D+00
 0.00000000D+00 0.00000000D+00-0.85229790D+00 0.00000000D+00 0.00000000D+00
-0.36205496D+00 0.00000000D+00 0.00000000D+00-0.89269959D+00 0.00000000D+00
 0.42133943D+00 0.29198846D+01-0.89401454D+00 0.17200117D+01 0.00000000D+00
 0.53003598D+00-0.31741993D+00 0.00000000D+00-0.38623980D+01 0.22377547D+01
 0.00000000D+00-0.17740538D+00 0.37683280D-01-0.35216351D+00-0.94470591D+00
-0.50549803D+00 0.00000000D+00 0.00000000D+00 0.27544729D+00-0.86992581D+00
-0.45195224D+00-0.56826052D+00 0.00000000D+00 0.00000000D+00-0.31894157D+00
 0.00000000D+00 0.21239792D+01-0.99406980D+00 0.00000000D+00 0.87830603D+00
-0.52763783D+00 0.00000000D+00 0.73063482D+00-0.57106618D+00 0.00000000D+00
 0.42133943D+00 0.29198846D+01-0.89401454D+00 0.17200117D+01 0.00000000D+00
-0.53003598D+00-0.31741993D+00 0.00000000D+00 0.38623980D+01 0.22377547D+01
 0.00000000D+00 0.17740538D+00 0.37683280D-01-0.35216351D+00-0.94470591D+00
-0.50549803D+00 0.00000000D+00 0.00000000D+00-0.27544729D+00-0.86992581D+00
-0.45195224D+00-0.56826052D+00 0.00000000D+00 0.00000000D+00 0.31894157D+00
 0.00000000D+00-0.21239792D+01-0.99406980D+00 0.00000000D+00-0.87830603D+00
-0.52763783D+00 0.00000000D+00-0.73063482D+00-0.57106618D+00 0.00000000D+00
   99 Alpha MO OE= 0.11702528D+02
-0.22544597D+00 0.90153361D+01 0.73950749D+00 0.21426501D+01 0.00000000D+00
 0.00000000D+00 0.99305394D-01 0.00000000D+00 0.00000000D+00-0.59810900D+00
 0.00000000D+00 0.00000000D+00-0.12724566D+00-0.32859579D+01-0.33856128D+01
-0.33069823D+01 0.00000000D+00 0.00000000D+00 0.00000000D+00-0.22185165D+01
-0.15505184D+01-0.20907215D+01 0.00000000D+00 0.00000000D+00 0.00000000D+00
 0.00000000D+00 0.00000000D+00 0.18153954D+00 0.00000000D+00 0.00000000D+00
 0.91668398D-01 0.00000000D+00 0.00000000D+00 0.14740642D-01 0.00000000D+00
 0.16768735D-01 0.24399860D+00-0.67693596D-01-0.44780103D+00 0.00000000D+00
-0.71214110D-01 0.41832618D-01 0.00000000D+00 0.10324831D+01-0.52895523D+00
 0.00000000D+00 0.29013199D-01 0.16585169D-01-0.11053074D+00-0.65131548D-01
-0.94591934D-01 0.00000000D+00 0.00000000D+00-0.16585617D-01-0.90656315D-02
-0.25982084D+00-0.81188546D-01 0.00000000D+00 0.00000000D+00 0.11621395D+00
 0.00000000D+00-0.45572958D+00 0.15758998D+00 0.00000000D+00-0.12650070D+00
 0.68078633D-01 0.00000000D+00-0.17103167D+00 0.18679382D+00 0.00000000D+00
 0.16768735D-01 0.24399860D+00-0.67693596D-01-0.44780103D+00 0.00000000D+00
 0.71214110D-01 0.41832618D-01 0.00000000D+00-0.10324831D+01-0.52895523D+00
 0.00000000D+00-0.29013199D-01 0.16585169D-01-0.11053074D+00-0.65131548D-01
-0.94591934D-01 0.00000000D+00 0.00000000D+00 0.16585617D-01-0.90656315D-02
-0.25982084D+00-0.81188546D-01 0.00000000D+00 0.00000000D+00-0.11621395D+00
 0.00000000D+00 0.45572958D+00 0.15758998D+00 0.00000000D+00 0.12650070D+00
 0.68078633D-01 0.00000000D+00 0.17103167D+00 0.18679382D+00 0.00000000D+00
  100 Alpha MO OE= 0.11834298D+02
 0.00000000D+00 0.00000000D+00 0.00000000D+00 0.00000000D+00 0.00000000D+00
-0.13293493D+01 0.00000000D+00 0.00000000D+00 0.11041659D+02 0.00000000D+00
 0.00000000D+00-0.95013657D+00 0.00000000D+00 0.00000000D+00 0.00000000D+00
 0.00000000D+00 0.00000000D+00 0.00000000D+00 0.15646863D+00 0.00000000D+00
 0.00000000D+00 0.00000000D+00 0.00000000D+00 0.00000000D+00-0.18611100D+01
 0.00000000D+00-0.38113565D+01 0.00000000D+00 0.00000000D+00-0.14513742D+01
 0.00000000D+00 0.00000000D+00-0.13888992D+01 0.00000000D+00 0.00000000D+00
 0.69785687D+00 0.47761456D+01-0.29125207D+01 0.27915033D+01 0.00000000D+00
-0.11410008D+01 0.44359266D+00 0.00000000D+00 0.74645850D+01-0.29354199D+01
 0.00000000D+00-0.41421687D+00 0.29198171D+00-0.11007929D+01-0.70054890D+00
-0.10955808D+01 0.00000000D+00 0.00000000D+00-0.27369949D+00-0.24950969D+01
-0.37986761D+01-0.24042639D+01 0.00000000D+00 0.00000000D+00 0.62797554D+00
 0.00000000D+00-0.29275123D+01 0.13546412D+01 0.00000000D+00-0.13280326D+01
 0.52081004D+00 0.00000000D+00-0.14793066D+01 0.47930715D+00 0.00000000D+00
-0.69785687D+00-0.47761456D+01 0.29125207D+01-0.27915033D+01 0.00000000D+00
-0.11410008D+01-0.44359266D+00 0.00000000D+00 0.74645850D+01 0.29354199D+01
 0.00000000D+00-0.41421687D+00-0.29198171D+00 0.11007929D+01 0.70054890D+00
 0.10955808D+01 0.00000000D+00 0.00000000D+00-0.27369949D+00 0.24950969D+01
 0.37986761D+01 0.24042639D+01 0.00000000D+00 0.00000000D+00 0.62797554D+00
 0.00000000D+00-0.29275123D+01-0.13546412D+01 0.00000000D+00-0.13280326D+01
-0.52081004D+00 0.00000000D+00-0.14793066D+01-0.47930715D+00 0.00000000D+00
  101 Alpha MO OE= 0.12901013D+02
 0.98414244D-01-0.62820197D-03 0.11868639D+01-0.38432779D+01 0.00000000D+00
 0.00000000D+00 0.20869750D+00 0.00000000D+00 0.00000000D+00-0.25170743D+01
 0.00000000D+00 0.00000000D+00 0.69438740D+00 0.48504759D+00 0.23569988D+00
 0.41500969D+00 0.00000000D+00 0.00000000D+00 0.00000000D+00 0.10241933D+01
 0.16087804D+01 0.13144812D+01 0.00000000D+00 0.00000000D+00 0.00000000D+00
 0.00000000D+00 0.00000000D+00 0.46162179D+00 0.00000000D+00 0.00000000D+00
 0.22321925D+00 0.00000000D+00 0.00000000D+00 0.11071188D+01 0.00000000D+00
 0.96415356D+00 0.70432951D+01-0.31616228D+01 0.39428996D+01 0.00000000D+00
-0.94656784D+00 0.30526983D+00 0.00000000D+00 0.55648039D+01-0.17536898D+01
 0.00000000D+00-0.77793486D+00 0.19343110D+00-0.15115340D+01-0.96107237D+00
-0.14178313D+01 0.00000000D+00 0.00000000D+00-0.17654727D+00-0.26598217D+01
-0.36572811D+01-0.29206487D+01 0.00000000D+00 0.00000000D+00 0.29794553D+00
 0.00000000D+00-0.25981397D+01 0.76747009D+00 0.00000000D+00-0.12921351D+01
 0.42700106D+00 0.00000000D+00-0.11369205D+01 0.37092491D+00 0.00000000D+00
 0.96415356D+00 0.70432951D+01-0.31616228D+01 0.39428996D+01 0.00000000D+00
 0.94656784D+00 0.30526983D+00 0.00000000D+00-0.55648039D+01-0.17536898D+01
 0.00000000D+00 0.77793486D+00 0.19343110D+00-0.15115340D+01-0.96107237D+00
-0.14178313D+01 0.00000000D+00 0.00000000D+00 0.17654727D+00-0.26598217D+01
-0.36572811D+01-0.29206487D+01 0.00000000D+00 0.00000000D+00-0.29794553D+00
 0.00000000D+00 0.25981397D+01 0.76747009D+00 0.00000000D+00 0.12921351D+01
 0.42700106D+00 0.00000000D+00 0.11369205D+01 0.37092491D+00 0.00000000D+00
  102 Alpha MO OE= 0.13778281D+02
 0.00000000D+00 0.00000000D+00 0.00000000D+00 0.00000000D+00 0.00000000D+00
-0.18787295D+01 0.00000000D+00 0.00000000D+00 0.14399716D+02 0.00000000D+00
 0.00000000D+00 0.23283216D+01 0.00000000D+00 0.00000000D+00 0.00000000D+00
 0.00000000D+00 0.00000000D+00 0.00000000D+00-0.42626199D+00 0.00000000D+00
 0.00000000D+00 0.00000000D+00 0.00000000D+00 0.00000000D+00-0.36328608D+01
 0.00000000D+00-0.22555578D+01 0.00000000D+00 0.00000000D+00-0.22646673D+01
 0.00000000D+00 0.00000000D+00-0.13993564D+01 0.00000000D+00 0.00000000D+00
-0.85130162D+00-0.64544181D+01 0.13793908D+01-0.48268860D+01 0.00000000D+00
-0.13510413D+01 0.42773233D+00 0.00000000D+00 0.87635151D+01-0.27392169D+01
 0.00000000D+00 0.10150117D+01-0.57315822D+00 0.10658811D+01 0.11280981D+01
 0.95735107D+00 0.00000000D+00 0.00000000D+00-0.49286193D-01 0.14363768D+01
-0.11666692D+01 0.12999808D+01 0.00000000D+00 0.00000000D+00 0.12250707D+01
 0.00000000D+00-0.23575933D+01 0.93782945D+00 0.00000000D+00-0.13972597D+01
 0.44102964D+00 0.00000000D+00-0.12102523D+01-0.79458197D-01 0.00000000D+00
 0.85130162D+00 0.64544181D+01-0.13793908D+01 0.48268860D+01 0.00000000D+00
-0.13510413D+01-0.42773233D+00 0.00000000D+00 0.87635151D+01 0.27392169D+01
 0.00000000D+00 0.10150117D+01 0.57315822D+00-0.10658811D+01-0.11280981D+01
-0.95735107D+00 0.00000000D+00 0.00000000D+00-0.49286193D-01-0.14363768D+01
 0.11666692D+01-0.12999808D+01 0.00000000D+00 0.00000000D+00 0.12250707D+01
 0.00000000D+00-0.23575933D+01-0.93782945D+00 0.00000000D+00-0.13972597D+01
-0.44102964D+00 0.00000000D+00-0.12102523D+01 0.79458197D-01 0.00000000D+00
  103 Alpha MO OE= 0.16644301D+02
 0.23302888D+00 0.15020843D+01 0.11594416D+00-0.15447891D+01 0.00000000D+00
 0.00000000D+00 0.18132885D+00 0.00000000D+00 0.00000000D+00-0.13547175D+01
 0.00000000D+00 0.00000000D+00 0.34464572D+00-0.10367386D+00-0.10765123D+00
-0.80133408D-01 0.00000000D+00 0.00000000D+00 0.00000000D+00 0.55568810D-01
 0.12135948D+01 0.20226176D+00 0.00000000D+00 0.00000000D+00 0.00000000D+00
 0.00000000D+00 0.00000000D+00 0.37229420D+00 0.00000000D+00 0.00000000D+00
 0.18246267D+00 0.00000000D+00 0.00000000D+00 0.67418122D-01 0.00000000D+00
-0.37240262D+00 0.50540157D+01 0.65292847D+00 0.19590532D+01 0.00000000D+00
-0.36006094D+00 0.16152493D+00 0.00000000D+00 0.22699396D+01-0.10442419D+01
 0.00000000D+00-0.31109950D+00 0.46524170D-01-0.22079609D+01-0.21476690D+01
-0.21705100D+01 0.00000000D+00 0.00000000D+00-0.28631559D-01-0.16179723D+01
-0.21050527D+01-0.17812151D+01 0.00000000D+00 0.00000000D+00 0.23717673D+00
 0.00000000D+00-0.78994968D+00 0.39816353D+00 0.00000000D+00-0.41874989D+00
 0.18820651D+00 0.00000000D+00-0.38698132D+00 0.13701271D+00 0.00000000D+00
-0.37240262D+00 0.50540157D+01 0.65292847D+00 0.19590532D+01 0.00000000D+00
 0.36006094D+00 0.16152493D+00 0.00000000D+00-0.22699396D+01-0.10442419D+01
 0.00000000D+00 0.31109950D+00 0.46524170D-01-0.22079609D+01-0.21476690D+01
-0.21705100D+01 0.00000000D+00 0.00000000D+00 0.28631559D-01-0.16179723D+01
-0.21050527D+01-0.17812151D+01 0.00000000D+00 0.00000000D+00-0.23717673D+00
 0.00000000D+00 0.78994968D+00 0.39816353D+00 0.00000000D+00 0.41874989D+00
 0.18820651D+00 0.00000000D+00 0.38698132D+00 0.13701271D+00 0.00000000D+00
  104 Alpha MO OE= 0.16699608D+02
 0.00000000D+00 0.00000000D+00 0.00000000D+00 0.00000000D+00 0.00000000D+00
-0.11811792D+00 0.00000000D+00 0.00000000D+00 0.45285390D+00 0.00000000D+00
 0.00000000D+00-0.12830843D+01 0.00000000D+00 0.00000000D+00 0.00000000D+00
 0.00000000D+00 0.00000000D+00 0.00000000D+00 0.12012930D+00 0.00000000D+00
 0.00000000D+00 0.00000000D+00 0.00000000D+00 0.00000000D+00 0.14358142D+00
 0.00000000D+00-0.45252778D+00 0.00000000D+00 0.00000000D+00-0.64737442D-01
 0.00000000D+00 0.00000000D+00-0.15764463D+00 0.00000000D+00 0.00000000D+00
-0.28020160D+00 0.59176210D+01 0.53624755D+00 0.31456324D+01 0.00000000D+00
-0.40118588D-01 0.45461001D-01 0.00000000D+00 0.29787614D+00-0.29707340D+00
 0.00000000D+00-0.53604860D+00 0.35027355D+00-0.23420305D+01-0.23208111D+01
-0.23448602D+01 0.00000000D+00 0.00000000D+00-0.14164764D-01-0.19036764D+01
-0.17053211D+01-0.18551105D+01 0.00000000D+00 0.00000000D+00-0.75815998D-01
 0.00000000D+00-0.26622609D+00 0.14616246D+00 0.00000000D+00-0.58515829D-01
 0.55776312D-01 0.00000000D+00-0.91555804D-01 0.12058454D+00 0.00000000D+00
 0.28020160D+00-0.59176210D+01-0.53624755D+00-0.31456324D+01 0.00000000D+00
-0.40118588D-01-0.45461001D-01 0.00000000D+00 0.29787614D+00 0.29707340D+00
 0.00000000D+00-0.53604860D+00-0.35027355D+00 0.23420305D+01 0.23208111D+01
 0.23448602D+01 0.00000000D+00 0.00000000D+00-0.14164764D-01 0.19036764D+01
 0.17053211D+01 0.18551105D+01 0.00000000D+00 0.00000000D+00-0.75815998D-01
 0.00000000D+00-0.26622609D+00-0.14616246D+00 0.00000000D+00-0.58515829D-01
-0.55776312D-01 0.00000000D+00-0.91555804D-01-0.12058454D+00 0.00000000D+00
  105 Alpha MO OE= 0.16737019D+02
 0.16756702D+01 0.12982684D+02-0.23645450D+01 0.62033131D+01 0.00000000D+00
 0.00000000D+00 0.49526611D+00 0.00000000D+00 0.00000000D+00-0.47262772D+01
 0.00000000D+00 0.00000000D+00-0.11238145D+01-0.20642204D+01-0.85616556D+00
-0.18072507D+01 0.00000000D+00 0.00000000D+00 0.00000000D+00-0.29099610D+01
 0.35805229D+01-0.18871292D+01 0.00000000D+00 0.00000000D+00 0.00000000D+00
 0.00000000D+00 0.00000000D+00 0.10660041D+01 0.00000000D+00 0.00000000D+00
 0.57518016D+00 0.00000000D+00 0.00000000D+00-0.86280926D+00 0.00000000D+00
-0.37224197D+00-0.43164483D+01 0.28998115D+00-0.46303060D+01 0.00000000D+00
-0.13290532D+01 0.68912124D+00 0.00000000D+00 0.84110405D+01-0.44519797D+01
 0.00000000D+00 0.12845927D+01-0.42827551D+00 0.81792953D+00 0.90445819D+00
 0.92169697D+00 0.00000000D+00 0.00000000D+00-0.67130539D-01 0.11691380D+01
-0.18337454D+01 0.38814804D+00 0.00000000D+00 0.00000000D+00 0.15437164D+01
 0.00000000D+00-0.20843793D+01 0.16537413D+01 0.00000000D+00-0.15140145D+01
 0.77760813D+00 0.00000000D+00-0.12587248D+01 0.15389460D+00 0.00000000D+00
-0.37224197D+00-0.43164483D+01 0.28998115D+00-0.46303060D+01 0.00000000D+00
 0.13290532D+01 0.68912124D+00 0.00000000D+00-0.84110405D+01-0.44519797D+01
 0.00000000D+00-0.12845927D+01-0.42827551D+00 0.81792953D+00 0.90445819D+00
 0.92169697D+00 0.00000000D+00 0.00000000D+00 0.67130539D-01 0.11691380D+01
-0.18337454D+01 0.38814804D+00 0.00000000D+00 0.00000000D+00-0.15437164D+01
 0.00000000D+00 0.20843793D+01 0.16537413D+01 0.00000000D+00 0.15140145D+01
 0.77760813D+00 0.00000000D+00 0.12587248D+01 0.15389460D+00 0.00000000D+00
164.2u 6.6s 0:46 368% 0+0k 379+44io 13pf+0w
Fri Sep  9 23:25:53 CDT 2005
